/*--------------------------------*- C++ -*----------------------------------*\
| =========                 |                                                 |
| \\      /  F ield         | OpenFOAM: The Open Source CFD Toolbox           |
|  \\    /   O peration     | Version:  1.7.x                                 |
|   \\  /    A nd           | Web:      www.OpenFOAM.com                      |
|    \\/     M anipulation  |                                                 |
\*---------------------------------------------------------------------------*/
FoamFile
{
    version     2.0;
    format      ascii;
    class       volScalarField;
    location    "30";
    object      T;
}
// * * * * * * * * * * * * * * * * * * * * * * * * * * * * * * * * * * * * * //

dimensions      [0 0 0 1 0 0 0];

internalField   nonuniform List<scalar> 
4872
(
299.99998
299.99998
299.99998
299.99998
299.99998
299.99998
299.99998
299.99998
299.99998
299.99998
299.99998
299.99998
299.99957
299.99955
299.99953
299.99951
299.9995
299.9995
299.99952
299.99954
299.99956
299.99957
299.99959
299.9996
299.9945
299.99423
299.99394
299.99367
299.99347
299.99347
299.99374
299.99405
299.9943
299.99455
299.99476
299.99492
299.99157
299.99108
299.99058
299.99014
299.98985
299.98984
299.99016
299.99059
299.99095
299.99128
299.99157
299.99181
299.98828
299.98761
299.98697
299.98637
299.98596
299.98591
299.98622
299.98672
299.98715
299.98755
299.9879
299.98819
299.98472
299.98395
299.98309
299.98236
299.98182
299.98167
299.98196
299.9825
299.98298
299.98341
299.98381
299.9841
299.98074
299.97994
299.97898
299.97808
299.97739
299.97711
299.9774
299.97794
299.97845
299.9789
299.97929
299.97962
299.97616
299.97533
299.97432
299.97338
299.97261
299.97227
299.97255
299.97307
299.97354
299.97399
299.97437
299.97471
299.9715
299.97075
299.96982
299.96872
299.96771
299.96724
299.96742
299.96779
299.96824
299.96873
299.96911
299.96952
299.96605
299.96535
299.96447
299.96324
299.96206
299.96154
299.9617
299.96202
299.96248
299.96298
299.96342
299.96383
299.96133
299.9606
299.95968
299.95861
299.95727
299.95624
299.95601
299.95627
299.95686
299.95745
299.95797
299.95845
299.95726
299.95651
299.95559
299.9544
299.95313
299.95221
299.95184
299.95209
299.95275
299.95343
299.95399
299.9545
299.95388
299.95314
299.95221
299.95111
299.9499
299.949
299.94854
299.94874
299.94937
299.95005
299.95072
299.95129
299.95099
299.95027
299.94942
299.94843
299.94735
299.94651
299.94601
299.94612
299.94667
299.94735
299.94801
299.94864
299.94863
299.94794
299.94715
299.94628
299.94533
299.94453
299.94403
299.94408
299.94458
299.94522
299.94588
299.94649
299.94678
299.9461
299.94535
299.94456
299.9437
299.94295
299.94245
299.94243
299.94285
299.94347
299.94413
299.94475
299.94529
299.94464
299.94392
299.94317
299.9424
299.94169
299.94118
299.9411
299.94142
299.94202
299.94268
299.9433
299.94416
299.94352
299.94282
299.94212
299.94138
299.94071
299.9402
299.94007
299.94032
299.94087
299.94153
299.94216
299.94314
299.94251
299.94183
299.94115
299.94045
299.93979
299.93929
299.93911
299.93931
299.93981
299.94046
299.94109
299.94197
299.94136
299.9407
299.94002
299.93935
299.93871
299.9382
299.93799
299.93813
299.93857
299.93919
299.93982
299.94064
299.94005
299.9394
299.93875
299.93809
299.93746
299.93695
299.9367
299.93678
299.93714
299.93772
299.93834
299.93916
299.9386
299.93797
299.93733
299.93668
299.93606
299.93554
299.93525
299.93526
299.93554
299.93606
299.93666
299.93753
299.93701
299.93642
299.93578
299.93514
299.93452
299.93397
299.93364
299.93358
299.93378
299.93423
299.93479
299.93593
299.93548
299.93493
299.93431
299.93368
299.93304
299.93247
299.93209
299.93196
299.93209
299.93247
299.93297
299.93461
299.93422
299.93374
299.93318
299.93255
299.93193
299.93136
299.93095
299.93078
299.93086
299.93118
299.93163
299.93359
299.93325
299.93284
299.93234
299.93176
299.93115
299.93061
299.93019
299.93
299.93005
299.93033
299.93074
299.93285
299.93256
299.9322
299.93176
299.93125
299.93069
299.93019
299.92981
299.92962
299.92965
299.92989
299.93027
299.93233
299.93207
299.93176
299.93138
299.93094
299.93046
299.93002
299.92968
299.9295
299.92953
299.92973
299.93007
299.93204
299.93181
299.93153
299.93118
299.93079
299.93035
299.92995
299.92964
299.92948
299.92949
299.92967
299.92999
299.99995
299.99995
299.99994
299.99994
299.99994
299.99994
299.99994
299.99994
299.99995
299.99995
299.99995
299.99995
299.99917
299.99913
299.99908
299.99905
299.99902
299.99902
299.99905
299.99909
299.99913
299.99916
299.99919
299.99921
299.99457
299.99429
299.994
299.99375
299.99356
299.99356
299.99378
299.99405
299.9943
299.99452
299.99472
299.99488
299.99161
299.99115
299.99069
299.99027
299.98999
299.98997
299.99025
299.99064
299.99098
299.9913
299.99158
299.99181
299.98831
299.9877
299.98707
299.9865
299.98612
299.98605
299.98632
299.98678
299.9872
299.98759
299.98793
299.98821
299.98471
299.98399
299.98319
299.98249
299.98197
299.98181
299.98207
299.98256
299.98302
299.98345
299.98383
299.98414
299.98071
299.97994
299.97904
299.97819
299.97753
299.97726
299.9775
299.978
299.97849
299.97893
299.97932
299.97965
299.97615
299.97535
299.97441
299.9735
299.97276
299.97242
299.97265
299.97311
299.97358
299.97402
299.9744
299.97475
299.97147
299.97073
299.96982
299.96878
299.96785
299.96738
299.96749
299.96785
299.96829
299.96875
299.96915
299.96953
299.96604
299.96534
299.96445
299.96332
299.96224
299.96169
299.96177
299.96208
299.96252
299.963
299.96344
299.96385
299.9613
299.96057
299.95966
299.9586
299.95737
299.95641
299.95615
299.95639
299.95692
299.95749
299.95801
299.95849
299.95722
299.95649
299.95557
299.95444
299.95325
299.95235
299.95199
299.95222
299.95281
299.95344
299.95401
299.95452
299.95384
299.95311
299.95221
299.95114
299.95001
299.94913
299.9487
299.94887
299.94945
299.9501
299.95074
299.9513
299.95098
299.95027
299.94943
299.94847
299.94745
299.94662
299.94616
299.94626
299.94677
299.94741
299.94805
299.94866
299.94864
299.94796
299.94719
299.94633
299.94541
299.94464
299.94417
299.94422
299.94467
299.94528
299.94592
299.94652
299.94679
299.94614
299.9454
299.94461
299.94378
299.94305
299.94258
299.94257
299.94295
299.94353
299.94417
299.94477
299.94531
299.94468
299.94397
299.94323
299.94247
299.94178
299.9413
299.94123
299.94154
299.94209
299.94272
299.94333
299.94419
299.94357
299.94288
299.94218
299.94145
299.94078
299.9403
299.94019
299.94044
299.94096
299.94158
299.94219
299.94317
299.94256
299.94189
299.94121
299.94051
299.93986
299.93938
299.93923
299.93944
299.93991
299.94052
299.94112
299.942
299.94141
299.94076
299.94009
299.93942
299.93878
299.9383
299.93811
299.93826
299.93868
299.93926
299.93986
299.94067
299.94009
299.93946
299.93881
299.93816
299.93754
299.93704
299.93682
299.93691
299.93726
299.93781
299.9384
299.93918
299.93864
299.93803
299.93739
299.93675
299.93613
299.93562
299.93535
299.93538
299.93566
299.93615
299.93671
299.93754
299.93704
299.93646
299.93584
299.9352
299.93458
299.93405
299.93374
299.93369
299.9339
299.93432
299.93485
299.93594
299.93549
299.93495
299.93435
299.93372
299.93309
299.93254
299.93217
299.93205
299.93219
299.93255
299.93301
299.93461
299.93422
299.93375
299.9332
299.93259
299.93196
299.9314
299.93101
299.93086
299.93095
299.93126
299.93168
299.93358
299.93324
299.93282
299.93233
299.93176
299.93116
299.93062
299.93022
299.93004
299.9301
299.93037
299.93075
299.93284
299.93254
299.93217
299.93173
299.93122
299.93067
299.93017
299.92981
299.92964
299.92969
299.92993
299.93028
299.93229
299.93203
299.93171
299.93133
299.93089
299.93042
299.92999
299.92967
299.92951
299.92955
299.92976
299.93009
299.93199
299.93177
299.93149
299.93115
299.93075
299.93031
299.9299
299.9296
299.92946
299.92948
299.92966
299.92996
299.99997
299.99993
299.99942
299.99887
299.99254
299.99259
299.98824
299.98837
299.98357
299.98369
299.97851
299.9786
299.973
299.9731
299.96728
299.96737
299.96164
299.9617
299.95603
299.95609
299.95172
299.95176
299.94874
299.94877
299.9466
299.94662
299.94498
299.94499
299.94372
299.94374
299.94273
299.94275
299.94194
299.94195
299.94132
299.94133
299.94075
299.94077
299.94008
299.94009
299.93929
299.9393
299.93835
299.93836
299.93726
299.93727
299.93615
299.93615
299.93522
299.93522
299.93455
299.93455
299.93403
299.93403
299.93364
299.93368
299.93332
299.93349
299.99997
299.99994
299.99947
299.99895
299.99313
299.99312
299.98914
299.98918
299.98467
299.98472
299.97977
299.97982
299.97445
299.97451
299.96885
299.96891
299.96341
299.96342
299.9579
299.95791
299.95356
299.95356
299.95049
299.95049
299.94825
299.94825
299.94653
299.94653
299.9452
299.9452
299.94415
299.94415
299.9433
299.9433
299.94264
299.94264
299.94203
299.94203
299.94131
299.9413
299.94045
299.94045
299.93944
299.93944
299.93826
299.93826
299.93707
299.93706
299.93608
299.93607
299.93537
299.93537
299.93482
299.93482
299.93441
299.93444
299.93405
299.93421
299.99998
299.99994
299.9995
299.99902
299.99367
299.99363
299.98995
299.98994
299.98568
299.9857
299.98099
299.98101
299.97589
299.9759
299.97036
299.97041
299.965
299.96501
299.95959
299.9596
299.95521
299.9552
299.95208
299.95208
299.94977
299.94976
299.94798
299.94797
299.94657
299.94656
299.94544
299.94544
299.94454
299.94454
299.94384
299.94384
299.9432
299.94319
299.94243
299.94242
299.94152
299.94151
299.94045
299.94044
299.9392
299.93918
299.93793
299.93792
299.93689
299.93687
299.93615
299.93614
299.93559
299.93558
299.93516
299.93519
299.93483
299.93498
299.99998
299.99994
299.99953
299.99908
299.99404
299.99402
299.99057
299.99056
299.98654
299.98655
299.98203
299.98206
299.97714
299.97715
299.97188
299.97187
299.96646
299.96648
299.96114
299.96114
299.95671
299.9567
299.95353
299.95352
299.95116
299.95114
299.94928
299.94927
299.94781
299.9478
299.94661
299.94661
299.94566
299.94565
299.94492
299.94491
299.94424
299.94423
299.94343
299.94342
299.94247
299.94246
299.94136
299.94134
299.94004
299.94002
299.93872
299.9387
299.93762
299.9376
299.93687
299.93685
299.93629
299.93629
299.93587
299.9359
299.93555
299.93571
299.99998
299.99995
299.99956
299.99913
299.99434
299.99434
299.99106
299.99108
299.98731
299.98733
299.98308
299.98307
299.97826
299.97827
299.97307
299.97311
299.96786
299.96787
299.96255
299.96255
299.95804
299.95805
299.95481
299.9548
299.95237
299.95235
299.95045
299.95043
299.9489
299.94889
299.94766
299.94765
299.94665
299.94664
299.94587
299.94586
299.94516
299.94515
299.94432
299.94431
299.94331
299.9433
299.94214
299.94212
299.94077
299.94075
299.93941
299.93938
299.93828
299.93825
299.93752
299.9375
299.93694
299.93694
299.93654
299.93656
299.93624
299.93639
299.99998
299.99995
299.99958
299.99918
299.99463
299.99463
299.99153
299.99155
299.98805
299.98803
299.98397
299.98395
299.97925
299.97928
299.97428
299.97429
299.96914
299.96914
299.96383
299.96383
299.95929
299.95928
299.95595
299.95594
299.95341
299.9534
299.95145
299.95143
299.94985
299.94984
299.94857
299.94856
299.94752
299.94752
299.94671
299.9467
299.94596
299.94596
299.94509
299.94508
299.94404
299.94403
299.94282
299.9428
299.9414
299.94137
299.94
299.93996
299.93885
299.93882
299.93809
299.93806
299.93753
299.93752
299.93716
299.93717
299.93692
299.93704
299.99998
299.99995
299.9996
299.99921
299.99493
299.99491
299.99192
299.99194
299.98861
299.98859
299.98468
299.98467
299.98021
299.98021
299.97539
299.97538
299.97027
299.97027
299.965
299.96499
299.96039
299.96038
299.95694
299.95695
299.95433
299.95433
299.95229
299.95229
299.95066
299.95066
299.94935
299.94934
299.94827
299.94826
299.94742
299.94742
299.94665
299.94664
299.94574
299.94572
299.94465
299.94464
299.94338
299.94336
299.94191
299.94188
299.94047
299.94044
299.93931
299.93928
299.93855
299.93852
299.93801
299.93801
299.93769
299.93768
299.93747
299.93758
299.99998
299.99995
299.99962
299.99925
299.99512
299.99511
299.99224
299.99227
299.98907
299.98906
299.9853
299.98529
299.98104
299.98102
299.97631
299.97631
299.97128
299.97128
299.96601
299.966
299.96138
299.96137
299.95785
299.95785
299.95516
299.95517
299.95306
299.95306
299.95137
299.95137
299.95
299.95
299.9489
299.94889
299.94803
299.94802
299.94722
299.94722
299.94627
299.94626
299.94515
299.94514
299.94383
299.94381
299.94231
299.94228
299.94083
299.9408
299.93967
299.93963
299.93891
299.93887
299.9384
299.93839
299.93807
299.93807
299.93788
299.93798
299.99998
299.99995
299.99963
299.99928
299.99529
299.99528
299.99254
299.99255
299.98943
299.98942
299.98581
299.9858
299.98167
299.98166
299.97711
299.9771
299.97216
299.97214
299.96688
299.96688
299.96225
299.96224
299.95867
299.95867
299.95591
299.95591
299.95374
299.95373
299.95199
299.95199
299.95057
299.95057
299.94943
299.94943
299.94853
299.94853
299.9477
299.94769
299.94672
299.94671
299.94555
299.94554
299.94419
299.94417
299.94261
299.94258
299.94108
299.94105
299.93991
299.93987
299.93916
299.93911
299.93866
299.93865
299.93834
299.93834
299.93817
299.93827
299.99998
299.99995
299.99964
299.99929
299.99544
299.99542
299.99281
299.99279
299.98974
299.98973
299.98622
299.9862
299.98218
299.98217
299.97776
299.97775
299.97285
299.97285
299.96765
299.96765
299.96298
299.96298
299.95938
299.95937
299.95655
299.95655
299.95432
299.95431
299.95252
299.95252
299.95105
299.95105
299.94986
299.94986
299.94893
299.94893
299.94807
299.94807
299.94706
299.94705
299.94585
299.94584
299.94444
299.94442
299.94281
299.94279
299.94124
299.9412
299.94005
299.94001
299.93929
299.93924
299.93881
299.9388
299.93851
299.9385
299.93836
299.93845
299.99998
299.99995
299.99965
299.99931
299.99551
299.99551
299.99293
299.99293
299.98992
299.98992
299.98649
299.98648
299.98258
299.98258
299.9783
299.97829
299.97349
299.97348
299.96835
299.96834
299.96362
299.96363
299.95997
299.95997
299.95709
299.95709
299.95479
299.95479
299.95295
299.95294
299.95144
299.95144
299.95021
299.95021
299.94925
299.94925
299.94836
299.94835
299.94731
299.9473
299.94606
299.94605
299.9446
299.94458
299.94292
299.9429
299.9413
299.94126
299.94009
299.94006
299.93932
299.93928
299.93886
299.93884
299.93856
299.93856
299.93841
299.93851
299.99998
299.99995
299.99966
299.99933
299.99565
299.99561
299.993
299.99302
299.99001
299.99002
299.98664
299.98664
299.98289
299.98288
299.97874
299.97871
299.97401
299.974
299.96895
299.96894
299.96421
299.96421
299.96047
299.96047
299.95753
299.95753
299.95518
299.95518
299.95328
299.95328
299.95174
299.95174
299.95048
299.95047
299.94948
299.94948
299.94856
299.94856
299.94748
299.94747
299.94619
299.94618
299.94468
299.94467
299.94295
299.94293
299.94128
299.94123
299.94004
299.94001
299.93927
299.93922
299.9388
299.93879
299.93851
299.9385
299.93838
299.93846
299.99998
299.99996
299.99966
299.99933
299.99573
299.99568
299.99312
299.9931
299.99005
299.99007
299.98671
299.98672
299.98305
299.98304
299.97899
299.97897
299.97439
299.97438
299.96944
299.96943
299.9647
299.96469
299.96088
299.96088
299.95787
299.95787
299.95547
299.95547
299.95352
299.95352
299.95194
299.95194
299.95064
299.95064
299.94962
299.94962
299.94868
299.94868
299.94756
299.94756
299.94624
299.94623
299.9447
299.94468
299.94291
299.94289
299.94117
299.94113
299.93992
299.93989
299.93913
299.93907
299.93867
299.93866
299.93837
299.93836
299.93824
299.93832
299.99998
299.99996
299.99966
299.99933
299.99574
299.99568
299.99309
299.99309
299.99003
299.99006
299.98669
299.98672
299.98306
299.98307
299.97912
299.97909
299.97466
299.97464
299.96985
299.96981
299.96507
299.96506
299.96121
299.96121
299.95813
299.95813
299.95566
299.95566
299.95367
299.95367
299.95205
299.95205
299.95072
299.95072
299.94968
299.94968
299.94871
299.94871
299.94757
299.94756
299.94622
299.94621
299.94463
299.94461
299.9428
299.94278
299.94101
299.94096
299.93973
299.9397
299.93892
299.93886
299.93845
299.93844
299.93815
299.93815
299.93801
299.9381
299.99998
299.99995
299.99966
299.99933
299.9956
299.9956
299.99299
299.99302
299.98998
299.99003
299.98664
299.98668
299.98303
299.98304
299.97907
299.97906
299.97476
299.97473
299.97008
299.97004
299.96534
299.96533
299.96144
299.96144
299.95831
299.95831
299.95578
299.95578
299.95374
299.95374
299.95208
299.95208
299.95072
299.95072
299.94965
299.94965
299.94866
299.94866
299.94749
299.94749
299.94611
299.9461
299.94449
299.94447
299.94263
299.94261
299.94079
299.94075
299.93949
299.93946
299.93865
299.93859
299.93818
299.93816
299.93788
299.93788
299.93774
299.93783
299.99998
299.99995
299.99965
299.99932
299.99555
299.99556
299.99297
299.993
299.98999
299.99003
299.9866
299.98665
299.9829
299.98294
299.97886
299.97889
299.97464
299.97463
299.97012
299.97008
299.96551
299.96548
299.96159
299.96159
299.95841
299.95841
299.95583
299.95583
299.95373
299.95374
299.95203
299.95203
299.95063
299.95064
299.94954
299.94954
299.94854
299.94854
299.94734
299.94734
299.94593
299.94592
299.94428
299.94426
299.94239
299.94237
299.94051
299.94047
299.9392
299.93917
299.93834
299.93828
299.93787
299.93785
299.93756
299.93756
299.93745
299.93752
299.99998
299.99995
299.99965
299.99932
299.99559
299.99558
299.993
299.99302
299.99007
299.99007
299.98667
299.98668
299.98282
299.98286
299.97867
299.97872
299.97441
299.97441
299.96996
299.96993
299.96554
299.9655
299.96167
299.96164
299.95845
299.95844
299.95581
299.95581
299.95365
299.95366
299.9519
299.95191
299.95047
299.95047
299.94937
299.94937
299.94834
299.94834
299.94712
299.94712
299.94568
299.94568
299.94401
299.944
299.94209
299.94208
299.94019
299.94014
299.93885
299.93882
299.93799
299.93793
299.93751
299.9375
299.93722
299.93722
299.93713
299.93717
299.99998
299.99995
299.99966
299.99932
299.9956
299.99559
299.993
299.99302
299.9901
299.9901
299.98668
299.98669
299.98279
299.98281
299.97854
299.97857
299.97412
299.97413
299.96963
299.96961
299.96538
299.96534
299.9616
299.96157
299.95838
299.95837
299.95571
299.9557
299.9535
299.9535
299.9517
299.95171
299.95024
299.95025
299.94911
299.94912
299.94806
299.94807
299.94682
299.94683
299.94538
299.94538
299.94368
299.94367
299.94175
299.94174
299.93982
299.93977
299.93846
299.93844
299.9376
299.93755
299.93714
299.93712
299.93685
299.93685
299.93677
299.93681
299.99998
299.99995
299.99966
299.99932
299.99561
299.99559
299.993
299.99302
299.99007
299.99008
299.98664
299.98666
299.98275
299.98276
299.97836
299.97839
299.97375
299.97378
299.96915
299.96916
299.96504
299.96501
299.96138
299.96134
299.95821
299.95818
299.95552
299.95551
299.95328
299.95328
299.95145
299.95145
299.94996
299.94997
299.9488
299.94881
299.94773
299.94775
299.94648
299.94649
299.94502
299.94503
299.94331
299.94331
299.94137
299.94137
299.93942
299.93938
299.93805
299.93804
299.93719
299.93714
299.93674
299.93673
299.93647
299.93646
299.9364
299.93643
299.99998
299.99995
299.99965
299.99932
299.99553
299.99554
299.99297
299.99299
299.99003
299.99003
299.9866
299.98659
299.98268
299.98267
299.97818
299.9782
299.97335
299.9734
299.96861
299.96865
299.96456
299.96454
299.96099
299.96097
299.9579
299.95787
299.95524
299.95522
299.95299
299.95298
299.95112
299.95113
299.94961
299.94963
299.94845
299.94847
299.94738
299.9474
299.94612
299.94613
299.94464
299.94466
299.94292
299.94293
299.94098
299.94098
299.93901
299.93899
299.93765
299.93763
299.93679
299.93674
299.93635
299.93633
299.9361
299.93609
299.93605
299.93605
299.99998
299.99995
299.99965
299.99931
299.99554
299.99554
299.99295
299.99296
299.98993
299.98994
299.98641
299.98644
299.98247
299.98247
299.97797
299.97798
299.973
299.97304
299.96811
299.96815
299.96398
299.96399
299.96047
299.96047
299.95743
299.95742
299.95483
299.95481
299.9526
299.9526
299.95075
299.95076
299.94924
299.94926
299.94808
299.9481
299.94701
299.94703
299.94575
299.94577
299.94427
299.94428
299.94254
299.94255
299.94059
299.94059
299.93862
299.93859
299.93725
299.93723
299.93639
299.93634
299.93596
299.93594
299.93573
299.9357
299.93569
299.93567
299.99998
299.99995
299.99965
299.99931
299.99554
299.99552
299.9929
299.99291
299.98988
299.98988
299.98629
299.98631
299.98221
299.98224
299.97767
299.97769
299.97267
299.97271
299.96763
299.96767
299.96339
299.96341
299.95991
299.95991
299.9569
299.9569
299.95432
299.95432
299.95214
299.95214
299.95032
299.95033
299.94884
299.94885
299.94769
299.9477
299.94663
299.94664
299.94537
299.94538
299.94388
299.94389
299.94214
299.94215
299.94018
299.94019
299.93822
299.93819
299.93685
299.93683
299.93598
299.93593
299.93556
299.93553
299.93533
299.9353
299.9353
299.93527
299.99998
299.99995
299.99965
299.99931
299.99549
299.99548
299.99284
299.99286
299.98977
299.98978
299.9862
299.98619
299.98197
299.98201
299.97735
299.97739
299.97235
299.97238
299.96719
299.96723
299.96282
299.96284
299.95933
299.95934
299.95634
299.95634
299.95378
299.95379
299.95164
299.95164
299.94985
299.94986
299.94839
299.9484
299.94724
299.94725
299.94619
299.9462
299.94494
299.94494
299.94346
299.94347
299.94172
299.94173
299.93976
299.93977
299.93781
299.93778
299.93643
299.93641
299.93555
299.93549
299.93512
299.93509
299.9349
299.93487
299.93486
299.93482
299.99998
299.99995
299.99964
299.9993
299.99547
299.99546
299.9928
299.9928
299.98968
299.98968
299.98603
299.98603
299.98177
299.98179
299.97706
299.9771
299.97202
299.97206
299.96677
299.96681
299.96226
299.96229
299.95874
299.95875
299.95575
299.95575
299.9532
299.95321
299.95108
299.95109
299.94933
299.94934
299.94788
299.94789
299.94675
299.94677
299.9457
299.94571
299.94446
299.94447
299.94299
299.943
299.94126
299.94127
299.93931
299.93931
299.93736
299.93733
299.93597
299.93595
299.93508
299.93502
299.93464
299.93461
299.93443
299.93439
299.9344
299.93433
299.99998
299.99995
299.99964
299.9993
299.99544
299.99542
299.99272
299.99273
299.98956
299.98956
299.98585
299.98586
299.98155
299.98157
299.9768
299.97683
299.9717
299.97173
299.96636
299.96639
299.96174
299.96176
299.95816
299.95817
299.95513
299.95514
299.95258
299.9526
299.95048
299.9505
299.94876
299.94878
299.94734
299.94735
299.94622
299.94623
299.94518
299.94519
299.94394
299.94395
299.94248
299.94249
299.94076
299.94076
299.93882
299.93882
299.93686
299.93683
299.93547
299.93545
299.93457
299.9345
299.93411
299.93408
299.9339
299.93385
299.93385
299.93378
299.99998
299.99995
299.99964
299.99929
299.99542
299.99539
299.99264
299.99264
299.98941
299.98941
299.98562
299.98563
299.9813
299.98132
299.97652
299.97654
299.97138
299.97141
299.96596
299.96599
299.96121
299.96124
299.95756
299.95758
299.95449
299.9545
299.95194
299.95196
299.94988
299.94989
299.94818
299.94819
299.94677
299.94678
299.94565
299.94566
299.94461
299.94462
299.94338
299.94338
299.94192
299.94192
299.9402
299.9402
299.93827
299.93827
299.93632
299.93629
299.93491
299.93488
299.93398
299.93392
299.9335
299.93348
299.93328
299.93324
299.93324
299.93317
299.99998
299.99995
299.99964
299.99928
299.9954
299.99535
299.99255
299.99254
299.98924
299.98924
299.98535
299.98538
299.981
299.98103
299.97621
299.97623
299.97103
299.97106
299.96555
299.96558
299.96069
299.96071
299.95696
299.95697
299.95383
299.95386
299.95131
299.95133
299.94926
299.94927
299.94756
299.94757
299.94615
299.94616
299.94504
299.94504
299.94399
299.944
299.94275
299.94276
299.94128
299.94129
299.93958
299.93958
299.93764
299.93765
299.9357
299.93568
299.93428
299.93426
299.93335
299.9333
299.93286
299.93282
299.93263
299.93259
299.93256
299.93248
299.99998
299.99995
299.99963
299.99927
299.99533
299.99527
299.99242
299.99242
299.98904
299.98904
299.98509
299.98511
299.98069
299.98072
299.97585
299.97588
299.97067
299.97069
299.96516
299.96518
299.96015
299.96018
299.95633
299.95635
299.95318
299.95321
299.95066
299.95068
299.94861
299.94862
299.9469
299.94691
299.94548
299.94549
299.94435
299.94436
299.9433
299.94331
299.94205
299.94206
299.94057
299.94059
299.93887
299.93888
299.93695
299.93696
299.93503
299.93502
299.93361
299.9336
299.93268
299.93263
299.93217
299.93214
299.93193
299.9319
299.93185
299.93177
299.99998
299.99995
299.99962
299.99926
299.9952
299.99516
299.99226
299.99224
299.98876
299.98878
299.98479
299.98481
299.98035
299.98038
299.97549
299.97552
299.97029
299.97032
299.96476
299.96476
299.9596
299.95962
299.9557
299.95572
299.95253
299.95255
299.95
299.95001
299.94792
299.94793
299.94619
299.9462
299.94475
299.94476
299.9436
299.94362
299.94254
299.94256
299.94129
299.94131
299.93983
299.93985
299.93814
299.93815
299.93622
299.93624
299.93432
299.93432
299.93291
299.93291
299.93198
299.93195
299.93146
299.93144
299.93122
299.93121
299.93112
299.93106
299.99998
299.99995
299.99961
299.99923
299.99506
299.99502
299.99202
299.99202
299.9885
299.98851
299.98444
299.98447
299.97999
299.98001
299.97507
299.97511
299.9699
299.96991
299.96428
299.96429
299.95898
299.95902
299.95504
299.95507
299.95185
299.95188
299.94929
299.94931
299.94716
299.94718
299.94541
299.94544
299.94396
299.94399
299.94283
299.94286
299.94178
299.9418
299.94053
299.94055
299.93905
299.93908
299.93735
299.93738
299.93545
299.93549
299.93358
299.9336
299.93221
299.93223
299.93129
299.93127
299.93078
299.93078
299.93056
299.93056
299.93046
299.93041
299.93262
299.93276
299.93295
299.93298
299.93332
299.93333
299.93382
299.93383
299.93445
299.93446
299.93532
299.93533
299.93635
299.93637
299.93736
299.93738
299.93822
299.93825
299.93896
299.93899
299.93958
299.93961
299.94011
299.94014
299.94068
299.94071
299.94142
299.94145
299.94235
299.94238
299.94353
299.94357
299.94507
299.94512
299.94718
299.94723
299.9501
299.95016
299.95442
299.95452
299.96014
299.96023
299.96596
299.96607
299.97183
299.97195
299.9775
299.97763
299.98281
299.98293
299.98771
299.98782
299.99216
299.99222
299.99939
299.99881
299.99997
299.99993
299.93201
299.93214
299.93234
299.93237
299.93269
299.93271
299.93316
299.93318
299.93375
299.93377
299.93455
299.93458
299.93551
299.93554
299.93645
299.93648
299.93725
299.93729
299.93794
299.93798
299.93852
299.93856
299.939
299.93905
299.93953
299.93958
299.94022
299.94027
299.94109
299.94114
299.94221
299.94226
299.94369
299.94376
299.94577
299.94583
299.94866
299.94875
299.95307
299.95317
299.95883
299.95895
299.96487
299.96499
299.97089
299.97103
299.97671
299.97685
299.98219
299.98232
299.98725
299.98737
299.99186
299.99192
299.99937
299.99877
299.99997
299.99993
299.93136
299.93149
299.93168
299.93172
299.93202
299.93204
299.93246
299.93248
299.93301
299.93303
299.93374
299.93377
299.93462
299.93465
299.93547
299.93551
299.93621
299.93626
299.93684
299.93689
299.93737
299.93743
299.93782
299.93788
299.9383
299.93837
299.93894
299.939
299.93974
299.93981
299.9408
299.94088
299.94222
299.94231
299.94425
299.94435
299.94717
299.94727
299.9517
299.95182
299.95755
299.95771
299.96375
299.96394
299.97007
299.9702
299.97598
299.97613
299.98159
299.98175
299.98683
299.98697
299.99161
299.99168
299.99935
299.99874
299.99997
299.99993
299.93069
299.93081
299.93101
299.93104
299.93133
299.93134
299.93173
299.93175
299.93223
299.93226
299.93289
299.93293
299.93369
299.93373
299.93446
299.93451
299.93513
299.93518
299.93571
299.93576
299.93619
299.93625
299.9366
299.93666
299.93704
299.93711
299.93762
299.9377
299.93837
299.93846
299.93936
299.93946
299.94075
299.94085
299.94274
299.94286
299.94566
299.9458
299.95039
299.95053
299.95642
299.9566
299.96297
299.96312
299.96934
299.96948
299.97537
299.97554
299.98115
299.98131
299.98654
299.98667
299.99145
299.99151
299.99934
299.99871
299.99997
299.99993
299.93001
299.9301
299.93032
299.93035
299.93062
299.93063
299.93099
299.93101
299.93144
299.93147
299.93203
299.93207
299.93274
299.93278
299.93343
299.93349
299.93404
299.9341
299.93456
299.93462
299.935
299.93507
299.93537
299.93545
299.93578
299.93586
299.93632
299.93641
299.93703
299.93713
299.938
299.93811
299.93934
299.93946
299.9413
299.94144
299.94432
299.94448
299.94923
299.9494
299.95558
299.95576
299.9624
299.96253
299.96877
299.96894
299.97504
299.97519
299.98089
299.98105
299.98636
299.98649
299.99136
299.9914
299.99933
299.99869
299.99997
299.99993
299.92935
299.92942
299.92964
299.92966
299.92991
299.92993
299.93025
299.93027
299.93065
299.93069
299.93117
299.93121
299.93179
299.93184
299.93242
299.93248
299.93297
299.93303
299.93345
299.93352
299.93386
299.93394
299.93421
299.9343
299.9346
299.93469
299.93513
299.93522
299.93582
299.93593
299.93678
299.93689
299.93812
299.93826
299.94011
299.94027
299.94329
299.94346
299.94845
299.94861
299.95515
299.95529
299.96207
299.9622
299.96858
299.96874
299.97493
299.97507
299.98083
299.98098
299.98632
299.98645
299.99134
299.99138
299.99933
299.99869
299.99997
299.99993
299.92876
299.9288
299.92901
299.92904
299.92926
299.92928
299.92956
299.92958
299.92991
299.92995
299.93036
299.93041
299.93091
299.93097
299.93149
299.93156
299.93202
299.93209
299.93248
299.93256
299.93288
299.93296
299.93323
299.93332
299.93361
299.93371
299.93414
299.93425
299.93485
299.93497
299.93586
299.93598
299.93726
299.9374
299.93937
299.93952
299.94274
299.9429
299.94814
299.94829
299.95506
299.9552
299.96207
299.9622
299.96881
299.96893
299.97517
299.97528
299.981
299.98114
299.98645
299.98658
299.99143
299.99147
299.99934
299.9987
299.99997
299.99993
299.92827
299.92829
299.92848
299.9285
299.92869
299.92871
299.92895
299.92898
299.92927
299.92931
299.92968
299.92973
299.9302
299.93026
299.93076
299.93083
299.93128
299.93135
299.93174
299.93182
299.93215
299.93224
299.93252
299.93261
299.93293
299.93303
299.93348
299.93359
299.93424
299.93436
299.93532
299.93544
299.93683
299.93697
299.93904
299.93922
299.94269
299.94284
299.9483
299.94844
299.95529
299.95544
299.96245
299.96257
299.96923
299.96934
299.97557
299.97568
299.9814
299.98151
299.98676
299.98686
299.9916
299.99164
299.99935
299.99873
299.99997
299.99993
299.92783
299.92783
299.928
299.92802
299.92819
299.9282
299.92843
299.92846
299.92873
299.92877
299.92913
299.92918
299.92965
299.92971
299.93021
299.93028
299.93074
299.93082
299.93123
299.93131
299.93167
299.93176
299.93206
299.93216
299.93251
299.93261
299.93312
299.93323
299.93397
299.93407
299.93512
299.93524
299.9368
299.93691
299.93924
299.93936
299.94302
299.94314
299.94879
299.9489
299.9559
299.95603
299.96306