/*--------------------------------*- C++ -*----------------------------------*\
| =========                 |                                                 |
| \\      /  F ield         | OpenFOAM: The Open Source CFD Toolbox           |
|  \\    /   O peration     | Version:  1.7.x                                 |
|   \\  /    A nd           | Web:      www.OpenFOAM.com                      |
|    \\/     M anipulation  |                                                 |
\*---------------------------------------------------------------------------*/
FoamFile
{
    version     2.0;
    format      ascii;
    class       scalarField;
    location    "0.003/lagrangian/reactingCloud1";
    object      cp;
}
// * * * * * * * * * * * * * * * * * * * * * * * * * * * * * * * * * * * * * //


25
(
4185.1625
4185.1633
4185.1642
4185.1652
4185.1661
4185.1637
4185.1627
4185.1637
4185.1662
4185.1652
4185.1649
4185.1638
4185.1649
4185.1653
4185.1683
4185.1661
4185.1667
4185.1657
4185.1666
4185.1694
4185.1654
4185.1662
4185.1667
4185.1677
4185.1703
)


// ************************************************************************* //
