/*--------------------------------*- C++ -*----------------------------------*\
| =========                 |                                                 |
| \\      /  F ield         | OpenFOAM: The Open Source CFD Toolbox           |
|  \\    /   O peration     | Version:  1.7.x                                 |
|   \\  /    A nd           | Web:      www.OpenFOAM.com                      |
|    \\/     M anipulation  |                                                 |
\*---------------------------------------------------------------------------*/
FoamFile
{
    version     2.0;
    format      ascii;
    class       scalarField;
    location    "0.003/lagrangian/reactingCloud1";
    object      d;
}
// * * * * * * * * * * * * * * * * * * * * * * * * * * * * * * * * * * * * * //


25
(
9.9849584e-05
9.9849535e-05
9.9849472e-05
9.9849412e-05
9.9849354e-05
9.9849506e-05
9.9849571e-05
9.9849508e-05
9.9849349e-05
9.9849409e-05
9.9849431e-05
9.9849496e-05
9.9849427e-05
9.9849402e-05
9.9849213e-05
9.9849351e-05
9.9849314e-05
9.9849379e-05
9.984932e-05
9.984914e-05
9.9849397e-05
9.9849346e-05
9.9849315e-05
9.9849248e-05
9.9849091e-05
)


// ************************************************************************* //
