/*--------------------------------*- C++ -*----------------------------------*\
| =========                 |                                                 |
| \\      /  F ield         | OpenFOAM: The Open Source CFD Toolbox           |
|  \\    /   O peration     | Version:  1.7.x                                 |
|   \\  /    A nd           | Web:      www.OpenFOAM.com                      |
|    \\/     M anipulation  |                                                 |
\*---------------------------------------------------------------------------*/
FoamFile
{
    version     2.0;
    format      ascii;
    class       Cloud<passiveParticle>;
    location    "0.003";
    object      positions;
}
// * * * * * * * * * * * * * * * * * * * * * * * * * * * * * * * * * * * * * //

25
(
(0.0019911694 0.0019862701 0.00066483469) 165989
(0.0039907989 0.0019862867 0.00066571214) 166337
(0.0059904109 0.001986314 0.00066689081) 166336
(0.0079899869 0.0019864039 0.00066802616) 166684
(0.0099895358 0.0019863196 0.00066947977) 166683
(0.0019911271 0.0039857369 0.0006662589) 166338
(0.0039907998 0.003985793 0.00066677865) 166685
(0.0059904174 0.0039857828 0.00066798827) 166685
(0.0079898992 0.0039856464 0.00066948846) 167032
(0.0099893326 0.0039855376 0.00067082554) 167380
(0.0019911489 0.0059852897 0.00066753263) 166686
(0.0039908472 0.0059853199 0.00066832117) 167033
(0.0059903161 0.0059851695 0.00066973283) 167033
(0.0079897319 0.0059849491 0.00067087272) 167380
(0.0099893277 0.0059848776 0.00067243858) 167728
(0.0019911298 0.0079848579 0.00066948751) 167034
(0.0039906608 0.0079846623 0.00067027894) 167382
(0.0059901324 0.0079844523 0.00067125702) 167729
(0.0079897472 0.007984447 0.00067232073) 167729
(0.0099894448 0.0079845385 0.00067388417) 168076
(0.0019910306 0.0099842091 0.00067114403) 167730
(0.0039905439 0.0099841785 0.00067178977) 167730
(0.0059901629 0.0099842528 0.00067271597) 168077
(0.0079898495 0.009984321 0.00067407364) 168077
(0.0099895446 0.0099843725 0.00067516669) 168424
)


// ************************************************************************* //
