/*--------------------------------*- C++ -*----------------------------------*\
| =========                 |                                                 |
| \\      /  F ield         | OpenFOAM: The Open Source CFD Toolbox           |
|  \\    /   O peration     | Version:  1.7.x                                 |
|   \\  /    A nd           | Web:      www.OpenFOAM.com                      |
|    \\/     M anipulation  |                                                 |
\*---------------------------------------------------------------------------*/
FoamFile
{
    version     2.0;
    format      ascii;
    class       scalarField;
    location    "0.003/lagrangian/reactingCloud1";
    object      T;
}
// * * * * * * * * * * * * * * * * * * * * * * * * * * * * * * * * * * * * * //


25
(
297.45739
297.45659
297.45555
297.45454
297.45357
297.45609
297.4572
297.45616
297.4535
297.45451
297.45488
297.45596
297.45482
297.45439
297.45127
297.45353
297.45292
297.45402
297.45303
297.45007
297.45429
297.45344
297.45293
297.45182
297.44915
)


// ************************************************************************* //
