/*--------------------------------*- C++ -*----------------------------------*\
| =========                 |                                                 |
| \\      /  F ield         | OpenFOAM: The Open Source CFD Toolbox           |
|  \\    /   O peration     | Version:  1.7.x                                 |
|   \\  /    A nd           | Web:      www.OpenFOAM.com                      |
|    \\/     M anipulation  |                                                 |
\*---------------------------------------------------------------------------*/
FoamFile
{
    version     2.0;
    format      ascii;
    class       vectorField;
    location    "0.003/lagrangian/reactingCloud1";
    object      U;
}
// * * * * * * * * * * * * * * * * * * * * * * * * * * * * * * * * * * * * * //


25
(
(-0.0043266397 -0.0083041706 0.8612583)
(-0.0045223391 -0.0079587161 0.86177382)
(-0.004703227 -0.0077518857 0.86287321)
(-0.0048796876 -0.0070260549 0.86371169)
(-0.0058498396 -0.0075960548 0.86472996)
(-0.0042604843 -0.0085584707 0.86246334)
(-0.0043533853 -0.0084655531 0.86212086)
(-0.0046775701 -0.0084308729 0.86307311)
(-0.0054113174 -0.0087545157 0.86443101)
(-0.0064037735 -0.0091203534 0.86545529)
(-0.0039475557 -0.0084869549 0.8635302)
(-0.0042066025 -0.0086890245 0.86337925)
(-0.0050861608 -0.0092601512 0.86456986)
(-0.0059648313 -0.0099056432 0.86538765)
(-0.0064949592 -0.010148716 0.86693144)
(-0.0040726044 -0.0089491712 0.86485323)
(-0.0047942887 -0.0097204901 0.8650252)
(-0.0055463176 -0.010323151 0.86582392)
(-0.0060334732 -0.010512036 0.86656867)
(-0.006282336 -0.010353191 0.86835756)
(-0.0044922591 -0.010547285 0.8659913)
(-0.0051595105 -0.010791016 0.86617998)
(-0.0058056577 -0.010858199 0.86675056)
(-0.0061522886 -0.010922901 0.86802721)
(-0.0062181984 -0.01068721 0.86865442)
)


// ************************************************************************* //
