/*--------------------------------*- C++ -*----------------------------------*\
| =========                 |                                                 |
| \\      /  F ield         | OpenFOAM: The Open Source CFD Toolbox           |
|  \\    /   O peration     | Version:  2.1.0                                 |
|   \\  /    A nd           | Web:      www.OpenFOAM.org                      |
|    \\/     M anipulation  |                                                 |
\*---------------------------------------------------------------------------*/
FoamFile
{
    version     2.0;
    format      ascii;
    class       volScalarField;
    location    "5000";
    object      Frot;
}
// * * * * * * * * * * * * * * * * * * * * * * * * * * * * * * * * * * * * * //

dimensions      [0 0 0 0 0 0 0];

internalField   nonuniform List<scalar> 
15000
(
1.25
1.0025
1.11084
0
1.25
0
1.25
1.25
0
0
0
0
0
0
0
0
0
0
0
0
0
0
0
0
0
1.25
1.25
1.25
1.25
1.25
1.25
1.25
1.25
1.25
1.25
1.25
1.25
1.25
1.25
1.25
1.25
1.25
1.25
1.25
1.25
0
1.25
1.11808
1.03678
1.25
1.25
0.999049
1.02206
1.25
1.25
0
1.25
0
0
0
0
0
1.25
0
0
0
0
0
0
0
0
0
0
1.25
1.25
1.25
1.25
1.25
1.25
1.25
1.25
1.25
1.25
1.25
1.25
1.25
1.25
1.25
1.25
1.25
1.25
1.25
1.25
1.25
1.25
0
1.25
1.02374
1.00358
1.25
1.24776
1.00028
1.01292
1.25
1.25
0
1.25
0
1.25
1.25
1.25
1.25
1.25
1.25
1.25
0
1.25
1.25
1.25
1.25
1.25
1.25
0
1.25
1.25
1.25
0
0
0
0
0
0
0
0
0
0
0
0
0
0
0
0
1.25
0
1.25
0
1.25
1.01383
1.00067
1.24811
1.17888
0.999712
1.00586
1.25
1.25
0
1.25
0
1.25
0
1.25
1.25
0
1.25
1.25
1.25
1.25
1.25
1.25
1.25
0
1.25
1.25
0
0
0
0
0
0
0
0
0
0
0
0
0
0
0
0
0
1.25
0
1.25
0
1.25
1.25
1.25
1.00663
0.99915
1.17912
1.13239
0.999256
1.00287
1.06294
1.25
0
1.25
0
1.25
0
0
0
0
0
0
1.25
0
0
0
0
0
0
1.25
0
0
0
1.25
1.25
1.25
1.25
1.25
1.25
1.25
1.25
1.25
1.25
1.25
1.25
1.25
1.25
1.25
0
1.25
0
1.25
1.25
1.05965
1.00358
0.998824
1.13251
1.10045
0.999065
1.00174
1.01317
1.25
0
1.25
0
1.25
0
1.25
0
0
1.25
1.25
1.25
1.25
1.25
1.25
1.25
0
1.25
1.25
0
0
0
0
0
0
0
0
0
0
0
0
0
0
0
1.25
0
1.25
0
1.25
0
1.25
1.25
1.0104
1.00233
0.998854
1.10049
1.07792
0.99906
1.00128
1.00171
1.2363
1.25
1.25
0
1.25
0
1.25
0
1.25
0
0
0
0
1.25
0
0
0
1.25
0
1.25
0.155225
1.25
1.25
1.25
1.25
1.25
1.25
1.25
1.25
1.25
1.25
0
1.25
0
1.25
0
1.25
0
1.25
0
0
1.21359
0.999709
1.00169
0.998978
1.07793
1.06123
0.999155
1.00102
0.99911
1.05519
0
0
0
1.25
0
1.25
0
1.25
0
1.25
0
1.25
0
1.25
0
0
0
0
1.25
1.25
1.25
1.25
1.25
1.25
0
1.25
0
1.25
0
1.25
0
1.25
0
1.25
0
1.25
0
1.25
1.25
1.25
1.0508
0.997743
1.00128
0.999137
1.06123
1.04838
0.999291
1.0008
0.9987
1.01425
0.422046
0
1.25
1.25
0
1.25
0
1.25
0
1.25
0
0
1.25
0
1.25
0
1.25
0
1.25
1.25
1.25
1.25
1.25
0
1.25
0
1.25
1.25
0
1.25
0
1.25
0
1.25
0
1.25
0
1.25
1.25
1.25
1.01442
0.99782
1.00095
0.999293
1.04837
1.03826
0.999423
1.00062
0.998774
1.00502
0.74214
0
1.25
1.25
0
1.25
0
1.25
0
1.25
0
1.25
0
1.25
0
0
0
0
0
1.25
1.25
0
0
0
0
1.25
0
1.25
0
1.25
0
1.25
0
1.25
0
1.25
0
0
1.25
1.25
1.00605
0.998223
1.00071
0.999426
1.03826
1.03023
0.999536
1.00048
0.998953
1.00251
0.866304
0
1.25
0
0
1.25
0
1.25
0
1.25
0
0
1.25
0
1.25
0
1.25
0
0
1.25
1.25
0
1.25
0
1.25
0
1.25
1.25
1.25
1.25
0
1.25
0
1.25
0
1.25
1.25
0
1.25
1.127
1.00333
0.998624
1.00052
0.999539
1.03023
1.02384
0.999621
1.00035
0.99916
1.00137
0.950519
0
1.25
0
0
1.25
0
1.25
0
1.25
0
1.25
0
1.25
0
0
0
0
0
1.25
0
1.25
0
1.25
0
1.25
0
1.25
0
1.25
0
1.25
0
1.25
0
0
1.25
0
1.25
1.01081
1.00181
0.998954
1.00038
0.999624
1.02384
1.01879
0.999683
1.00025
0.999295
1.00089
0.980316
0
1.25
0
1.25
1.25
0
1.25
0
1.25
0
0
1.25
0
1.25
0
1.25
0
0
1.25
0
0
1.25
0
1.25
1.25
1.25
1.25
1.25
1.25
0
1.25
0
1.25
0
0
1.25
0
1.25
0.995329
1.00109
0.99918
1.00028
0.999685
1.01878
1.01479
0.999738
1.0002
0.999406
1.0006
0.991269
0
1.25
0
1.25
0
0
1.25
0
1.25
0
1.25
0
1.25
0
0
0
0
0
1.25
0
1.25
0
1.25
0
1.25
0
1.25
0
1.25
0
1.25
0
1.25
0
0
1.25
0
1.25
0.994583
1.00065
0.999357
1.00021
0.999739
1.01479
1.01164
0.999782
1.00017
0.999498
1.00038
0.995453
1.25
1.25
0
1.25
0
1.25
1.25
1.25
0
0
0
1.25
0
1.25
0
1.25
0
0
1.25
0
0
1.25
0
1.25
1.25
1.25
0
1.25
1.25
0
1.25
0
1.25
1.25
0
1.25
0
0.0785883
0.996042
1.00036
0.999487
1.00017
0.999783
1.01164
1.00916
0.999814
1.00014
0.999593
1.00021
0.997353
1.25
1.25
0
1.25
0
0
1.25
0
1.25
0
1.25
0
1.25
0
0
0
0
0
1.25
0
1.25
0
1.25
0
1.25
0
1.25
0
1.25
0
1.25
0
0
1.25
0
1.25
0
0.985108
0.997453
1.00019
0.999596
1.00015
0.999815
1.00916
1.00721
0.999844
1.00013
0.999679
1.00016
0.998106
1.19822
1.25
0
1.25
0
1.25
0
1.25
0
0
0
1.25
0
1.25
0
1.25
0
0
1.25
0
0
1.25
0
1.25
1.25
1.25
0
1.25
1.25
0
1.25
1.25
0
1.25
0
1.25
0
0.971275
0.998167
1.00011
0.99968
1.00013
0.999845
1.00721
1.00568
0.999871
1.00012
0.999733
1.00006
0.998692
1.05735
1.25
0
1.25
0
0
1.25
1.25
1.25
0
1.25
0
1.25
0
0
0
0
0
1.25
0
1.25
0
1.25
0
1.25
0
1.25
0
1.25
0
1.25
1.25
0
1.25
0
1.25
0
1.00375
0.998748
1.00004
0.999758
1.00012
0.999872
1.00568
1.00448
0.999892
1.0001
0.999805
0.99997
0.999166
1.01083
1.25
0
1.25
0
1.25
0
1.25
0
0
0
1.25
0
1.25
1.25
0
0
0
1.25
0
0
1.25
0
1.25
1.25
1.25
0
1.25
0
0
0
1.25
0
1.25
0
1.25
0
1.01103
0.999226
0.999972
0.999805
1.0001
0.999893
1.00448
1.00353
0.999908
1.00008
0.999829
0.999955
0.999292
1.00757
1.25
0
1.25
0
0
1.25
1.25
1.25
0
1.25
0
1.25
0
0
0
0
0
1.25
0
1.25
0
1.25
0
1.25
0
1.25
0
1.25
0
1.25
1.25
0
1.25
0
1.25
0
1.00262
0.999277
0.999953
0.999829
1.00008
0.999909
1.00353
1.00279
0.99992
1.00006
0.999844
0.999924
0.999385
1.00455
0
0
1.25
0
1.25
0
1.25
0
1.25
0
1.25
0
1.25
1.25
0
0
0
1.25
0
0
1.25
0
1.25
0
1.25
0
1.25
0
1.25
0
1.25
0
1.25
0
1.25
0
1.00104
0.999372
0.999936
0.999843
1.00007
0.999921
1.00279
1.00221
0.999931
1.00005
0.999867
0.999899
0.999481
1.00269
1.25
0
1.25
1.25
0
1.25
1.25
1.25
0
1.25
0
1.25
0
1.25
1.25
0
0
1.25
0
1.25
0
1.25
0
1.25
0
1.25
0
1.25
1.25
0
1.25
0
1.25
0
1.25
1.25
1.00065
0.999458
0.99992
0.99986
1.00005
0.999931
1.00221
1.00175
0.999939
1.00003
0.999897
0.999896
0.999549
1.00135
0.781169
0
1.25
0
1.25
0
1.25
0
1.25
0
1.25
0
1.25
1.25
0
0
0
1.25
0
0
1.25
0
1.25
0
1.25
0
1.25
0
1.25
0
1.25
0
1.25
0
1.25
1.25
1.00041
0.999559
0.999924
0.999886
1.00004
0.99994
1.00175
1.00138
0.999947
1.00002
0.999924
0.999911
0.999627
1.0007
1.25
1.25
1.25
1.25
0
1.25
1.25
1.25
0
1.25
0
1.25
0
1.25
1.25
0
0
1.25
0
1.25
0
1.25
0
1.25
0
1.25
0
1.25
1.25
0
1.25
0
1.25
0
1.25
1.25
1.00017
0.999621
0.999935
0.999907
1.00002
0.999946
1.00138
1.0011
0.999952
1.00001
0.999928
0.999918
0.99965
1.0004
0.949859
0
1.25
0
1.25
0
1.25
0
1.25
0
1.25
0
1.25
1.25
0
0
0
1.25
0
0
1.25
0
1.25
0
1.25
0
1.25
0
1.25
0
1.25
0
1.25
0
1.25
1.1991
1.00004
0.999665
0.999943
0.999919
1.00002
0.999953
1.0011
1.00087
0.999957
1.00001
0.999935
0.999927
0.999688
1.00019
1.07967
1.25
0
1.25
0
1.25
1.25
1.25
0
1.25
0
1.25
0
1.25
1.25
0
0
1.25
0
1.25
0
1.25
0
1.25
0
1.25
0
1.25
1.25
1.25
1.25
0
1.25
0
1.25
1.07638
0.999945
0.999692
0.999937
0.999924
1.00002
0.999957
1.00087
1.00069
0.99996
1.00001
0.99993
0.999917
0.999685
1.00004
1.00133
0
1.25
0
1.25
0
1.25
0
1.25
0
1.25
0
1.25
1.25
0
0
0
1.25
0
0
1.25
0
1.25
0
1.25
0
1.25
0
1.25
0
1.25
0
1.25
0
1.25
1.02934
0.999866
0.999711
0.999944
0.999929
1.00002
0.999961
1.00069
1.00055
0.999964
1.00001
0.999932
0.999923
0.999719
0.99993
1.01746
1.25
0
1.25
0
1.25
0
1.25
0
1.25
0
1.25
0
1.25
1.25
0
0
1.25
0
1.25
0
1.25
0
1.25
0
1.25
0
1.25
1.25
1.25
1.25
0
1.25
1.25
0
1.01489
0.999798
0.999729
0.999938
0.999927
1.00001
0.999964
1.00055
1.00043
0.999966
1
0.99993
0.999919
0.999728
0.99993
0.999454
0
1.25
0
1.25
0
1.25
0
1.25
0
1.25
0
0
1.25
0
0
0
1.25
0
0
0
0
1.25
0
1.25
0
1.25
0
1.25
0
1.25
0
1.25
0
1.25
1.0073
0.999842
0.999792
0.999947
0.999938
1.00002
0.999969
1.00043
1.00035
0.99997
1
0.999936
0.999915
0.999749
0.99981
1.00338
1.25
0
1.25
0
1.25
0
1.25
0
1.25
0
1.25
1.25
1.25
1.25
0
0
1.25
0
1.25
0
1.25
0
1.25
0
1.25
0
1.25
1.25
1.25
1.25
0
1.25
0
1.25
1.0019
0.999768
0.999783
0.999937
0.999939
1.00001
0.999971
1.00035
1.00027
0.999969
0.999995
0.999921
0.999901
0.999706
0.999793
1.00091
0
1.25
0
1.25
0
1.25
0
1.25
0
1.25
0
0
1.25
0
0
0
1.25
0
0
0
0
1.25
0
1.25
0
1.25
0
1.25
0
1.25
0
1.25
0
0.0944725
1.00141
0.999815
0.999783
0.999938
0.999942
1.00001
0.999974
1.00027
1.00022
0.999973
0.999995
0.999926
0.999904
0.999733
0.999735
1.00102
1.25
0
1.25
0
1.25
0
1.25
1.25
1.25
0
0
1.25
1.25
1.25
0
0
1.25
0
1.25
0
1.25
0
1.25
0
1.25
0
1.25
1.25
1.25
1.25
0
1.25
1.25
1.25
1.00059
0.999799
0.999803
0.999942
0.999945
1.00001
0.999976
1.00022
1.00017
0.999969
0.999987
0.999906
0.99989
0.999704
0.999693
0.999622
0
1.25
0
1.25
0
1.25
0
1.25
0
1.25
1.25
0
1.25
0
0
0
1.25
0
0
1.25
0
1.25
0
1.25
0
1.25
0
1.25
0
1.25
0
1.25
0
1.14891
1.00058
0.999834
0.999831
0.999954
0.999953
1.00002
0.99998
1.00017
1.00014
0.999983
0.999985
0.999917
0.999896
0.999731
0.99966
0.999769
0
0
1.25
0
1.25
0
1.25
1.25
0
1.25
0
1.25
1.25
1.25
0
0
1.25
0
1.25
0
1.25
0
1.25
0
1.25
0
1.25
1.25
1.25
1.25
1.25
1.25
1.25
1.25
1.00043
0.999853
0.999855
0.999964
0.999961
1.00002
0.999982
1.00014
1.00011
0.999967
0.99997
0.999887
0.999867
0.999684
0.999594
0.99885
1.25
1.25
0
1.25
0
1.25
0
1.25
0
0
1.25
0
1.25
0
0
0
1.25
0
0
1.25
0
1.25
0
1.25
0
1.25
0
1.25
0
1.25
0
1.25
0
1.25
1.00062
0.999907
0.999887
0.999982
0.999973
1.00002
0.999986
1.00011
1.00009
0.999971
0.999971
0.999886
0.99987
0.999697
0.99955
0.998981
0.661606
0
1.25
0
1.25
0
1.25
1.25
0
1.25
0
1.25
1.25
1.25
0
0
1.25
0
1.25
0
1.25
0
1.25
0
1.25
1.25
1.25
1.25
1.25
1.25
1.25
1.25
1.25
1.25
1.00079
0.99998
0.999927
1.00001
0.999988
1.00003
0.99999
1.00009
1.00007
0.999963
0.999947
0.999841
0.999842
0.999646
0.999477
0.998094
1.25
1.25
0
1.25
0
1.25
0
1.25
1.25
0
1.25
0
1.25
0
0
0
1.25
0
0
1.25
0
1.25
0
1.25
0
1.25
0
1.25
0
1.25
0
0
0
1.25
1.00099
1.00007
0.999979
1.00004
0.999998
1.00004
0.999994
1.00007
1.00006
0.999963
0.999943
0.999825
0.999829
0.999661
0.999411
0.998157
1.11086
0
1.25
0
0
0
1.25
1.25
0
1.25
0
1.25
1.25
1.25
0
0
1.25
0
1.25
0
1.25
0
1.25
0
1.25
0
1.25
1.25
1.25
1.25
1.25
1.25
1.25
1.16002
1.00128
1.00018
1.00006
1.00009
1.00003
1.00006
1
1.00006
1.00004
0.999959
0.999911
0.999787
0.999766
0.999586
0.999287
0.997442
1.1133
1.25
0
1.25
0
1.25
0
1.25
1.25
0
1.25
0
1.25
0
0
0
1.25
0
0
1.25
0
1.25
0
1.25
0
1.25
0
1.25
0
1.25
0
0
0
1.13182
1.00151
1.00026
1.00012
1.00013
1.00005
1.00007
1.00001
1.00005
1.00003
0.999942
0.999909
0.999766
0.999725
0.999556
0.999166
0.997427
1.04845
0
1.25
0
1.25
0
1.25
1.25
0
1.25
0
1.25
1.25
1.25
0
0
1.25
0
1.25
0
1.25
0
1.25
0
1.25
0
1.25
0
1.25
0.057976
1.25
1.25
1.25
1.08258
1.00206
1.00043
1.00022
1.0002
1.00011
1.0001
1.00002
1.00004
1.00003
0.999947
0.999859
0.999708
0.999638
0.999438
0.998985
0.996578
1.01825
1.25
0
1.25
0
1.25
0
1.25
1.25
0
1.25
0
1.25
0
0
0
1.25
0
0
1.25
0
1.25
0
1.25
0
1.25
0
1.25
0
1.25
0
0
0
1.07016
1.00236
1.00057
1.0003
1.00026
1.00016
1.00013
1.00002
1.00003
1.00002
0.999924
0.999833
0.999662
0.999556
0.999335
0.998803
0.996367
1.01619
0
1.25
0
1.25
0
1.25
0
0
1.25
0
1.25
1.25
1.25
0
0
1.25
0
1.25
0
1.25
0
1.25
0
1.25
0
1.25
0
1.25
0.562067
1.25
1.25
1.25
1.05995
1.00317
1.00082
1.00045
1.00037
1.00025
1.00017
1.00004
1.00002
1.00002
0.999909
0.999784
0.999554
0.999431
0.999181
0.998536
0.995344
0.980598
1.25
0
1.25
0
1.25
0
1.25
1.25
0
1.25
0
1.25
1.25
0
0
1.25
0
0
1.25
0
1.25
0
1.25
0
1.25
0
0
0
0
0
0
1.25
1.0571
1.00365
1.00102
1.00058
1.00047
1.00033
1.00021
1.00005
1.00002
1.00001
0.999931
0.999708
0.999527
0.999329
0.999044
0.998299
0.994951
0.992765
1.25
1.25
1.25
1.25
0
1.25
0
0
0
0
1.25
1.25
0
0
0
1.25
0
1.25
0
1.25
0
1.25
1.25
1.25
0
1.25
1.25
1.25
1.25
1.25
0
0
1.05221
1.0045
1.00136
1.00079
1.00062
1.00044
1.00028
1.00008
1.00002
1.00001
0.999878
0.999627
0.999349
0.999086
0.998772
0.997871
0.993619
0.962346
0
0
0
0
1.25
0
1.25
1.25
1.25
1.25
0
1.25
1.25
0
0
1.25
1.25
0
1.25
0
1.25
0
0
0
0
0
0
0
0
0
1.25
1.25
1.05799
1.00543
1.0017
1.00102
1.0008
1.00057
1.00035
1.0001
1.00002
1
0.999846
0.999623
0.999203
0.998972
0.998578
0.997528
0.992948
0.96845
1.25
1.25
1.25
1.25
0
1.25
0
0
0
0
1.25
1.25
1.25
0
0
1.25
1.25
1.25
0
1.25
0
1.25
0
1.25
0
1.25
1.25
1.25
1.25
0
0
0
1.05958
1.00637
1.0021
1.00127
1.00099
1.00071
1.00043
1.00013
1.00001
1
0.999814
0.999456
0.998993
0.99864
0.998161
0.996942
0.991287
0.948485
0
0
0
0
1.25
0
1.25
0
1.25
1.25
0
1.25
0
0
0
1.25
1.25
0
0
0
1.25
0
1.25
0
1.25
0
0
0
0
1.25
1.25
1.25
1.06653
1.00781
1.00265
1.00164
1.00128
1.00092
1.00055
1.00017
1.00001
0.999997
0.999792
0.999349
0.998912
0.998425
0.9979
0.996486
0.990253
0.94785
1.25
1.25
1.25
1.25
1.25
0
0
1.25
1.25
0
1.25
1.25
1.25
0
0
1.25
1.25
0
0
1.25
0
1.25
0
1.25
0
1.25
0
0
0
0
0
0
1.07005
1.00899
1.00317
1.00199
1.00156
1.00113
1.00067
1.0002
1.00001
0.999994
0.999749
0.999195
0.998577
0.997962
0.997347
0.995634
0.988253
0.930923
0
0
0
0
1.25
1.25
1.25
1.25
0
1.25
1.25
1.25
0
0
0
1.25
0
1.25
0
0
1.25
0
1.25
0
1.25
0
1.25
1.25
1.25
0
0
0
1.08012
1.01077
1.00393
1.00249
1.00196
1.00141
1.00083
1.00026
1.00002
0.99999
0.999693
0.999034
0.998295
0.99769
0.996919
0.995012
0.986708
0.926482
1.25
1.25
0
1.25
1.25
1.25
0
1.25
1.25
0
1.25
1.25
1.25
0
0
1.25
0
1.25
0
1.25
0
1.25
0
1.25
0
1.25
0
0
0
1.25
1.25
0.346578
1.08615
1.01251
1.00474
1.00304
1.00239
1.00173
1.00101
1.00031
1.00002
0.999987
0.999637
0.998889
0.997975
0.997194
0.996216
0.993909
0.984229
0.912167
0
0
1.25
0
1.25
1.25
0
1.25
0
1.25
0
1.25
1.25
0
0
1.25
0
1.25
0
1.25
1.25
1.25
1.25
1.25
1.25
1.25
1.25
1.25
1.25
1.25
1.25
0
1.09539
1.01457
1.00569
1.0037
1.00291
1.00211
1.00123
1.00038
1.00002
0.999983
0.999559
0.998586
0.997497
0.996541
0.995571
0.992971
0.981971
0.902034
1.25
1.25
0
0
1.25
1.25
1.25
0
0
0
0
1.25
0
0
0
1.25
0
1.25
0
1.25
0
1.25
0
1.25
0
1.25
0
1.25
0
0
0
1.25
1.10456
1.0168
1.00678
1.00446
1.00352
1.00255
1.00148
1.00046
1.00002
0.99998
0.999498
0.998397
0.997188
0.996027
0.994767
0.991769
0.979126
0.899144
0
0
1.25
0
1.25
1.25
0
0
1.25
0
0
1.25
1.25
0
1.25
1.25
0
0
1.25
0
1.25
1.25
1.25
1.25
0
1.25
1.25
1.25
1.25
0
0
1.25
1.1157
1.01937
1.00806
1.00537
1.00424
1.00307
1.00179
1.00056
1.00003
0.999975
0.99939
0.998055
0.996525
0.995145
0.993766
0.990293
0.975789
0.875277
1.25
1.25
0
1.25
1.25
1.25
1.25
0
0
1.25
0
1.25
0
0
1.25
1.25
0
0
1.25
1.25
0
1.25
0
1.25
0
1.25
0
0
0
0
1.25
1.25
1.1256
1.02205
1.00948
1.0064
1.00506
1.00367
1.00213
1.00066
1.00003
0.999972
0.99931
0.997809
0.996103
0.994513
0.992804
0.988894
0.972601
0.878889
0
0
1.25
0
1.25
1.25
0
0
1.25
0
0
1.25
0
0
1.25
1.25
0
0
1.25
0
1.25
1.25
1.25
1.25
1.25
1.25
1.25
1.25
1.25
0
0
1.25
1.13758
1.02523
1.01111
1.00761
1.00602
1.00437
1.00254
1.00079
1.00004
0.999965
0.999172
0.997346
0.995283
0.993341
0.991469
0.986868
0.96809
0.852338
1.25
1.25
0
1.25
1.25
1.25
1.25
0
1.25
1.25
0
1.25
0
0
1.25
1.25
0
0
1.25
1.25
0
1.25
0
1.25
0
1.25
0
0
0
0
1.25
1.25
1.14761
1.0286
1.01292
1.00896
1.0071
1.00516
1.00299
1.00093
1.00004
0.99996
0.999069
0.997054
0.994692
0.9926
0.990313
0.985125
0.962159
0.848699
0
0
1.25
0
1.25
1.25
0
0
1.25
0
0
1.25
0
0
1.25
1.25
0
1.25
1.25
1.25
1.25
1.25
1.25
1.25
1.25
1.25
1.25
1.25
1.25
1.25
0
1.25
1.15977
1.03246
1.015
1.01052
1.00835
1.00607
1.00352
1.0011
1.00005
0.999953
0.998911
0.99651
0.993782
0.991143
0.988604
0.982686
0.962875
0.843889
1.25
0
0
1.25
1.25
1.25
1.25
0
1.25
0
0
1.25
1.25
0
1.25
1.25
0
0
1.25
1.25
0
1.25
0
1.25
0
1.25
0
0
0
1.25
1.25
1.25
1.16996
1.03649
1.01727
1.01225
1.00973
1.00707
1.00408
1.00127
1.00006
0.999947
0.998783
0.996123
0.993019
0.990159
0.987178
0.980406
0.947563
0.820981
0
1.25
1.25
1.25
1.25
0
1.25
0
0
1.25
0
1.25
0
0
1.25
1.25
0
1.25
1.25
1.25
1.25
1.25
1.25
1.25
1.25
1.25
1.25
1.25
1.25
1.25
0
1.25
1.18245
1.04104
1.01984
1.01421
1.01129
1.00819
1.00471
1.00147
1.00006
0.999938
0.998596
0.995504
0.991948
0.988488
0.98512
0.977474
0.950919
0.789081
0
0
0
1.25
1.25
0
1.25
0
1.25
0
0
1.25
0
0
1.25
1.25
0
1.25
1.25
1.25
0
1.25
0
1.25
0
1.25
0
0
0
0
0
1.25
1.1927
1.04581
1.02268
1.01639
1.01299
1.00941
1.00528
1.00159
1.00006
0.99993
0.998443
0.995026
0.991006
0.987183
0.983383
0.974826
0.940405
0.923104
0
1.25
1.25
0
1.25
0
0
1.25
1.25
0
0
1.25
0
0
1.25
1.25
0
1.25
1.25
1.25
1.25
1.25
1.25
1.25
1.25
1.25
1.25
1.25
1.25
1.25
0
1.25
1.20513
1.05133
1.02589
1.01883
1.01487
1.01066
1.00595
1.00153
1.00005
0.999921
0.998236
0.994344
0.989834
0.985448
0.980822
0.971392
0.935497
0.689792
0
0
1.25
0
1.25
0
0
1.25
0
0
0
1.25
0
0
1.25
1.25
0
1.25
1.25
1.25
0
1.25
0
1.25
0
1.25
0
0
0
0
1.25
1.25
1.21343
1.05719
1.02956
1.02173
1.01742
1.01236
1.00708
1.00188
1.00005
0.999911
0.998047
0.993783
0.988628
0.983568
0.978731
0.96766
0.921247
1.05072
0
1.25
1.25
0
1.25
0
0
1.25
1.25
1.25
0
1.25
0
0
1.25
1.25
0
1.25
1.25
1.25
1.25
1.25
1.25
1.25
1.25
1.25
1.25
1.25
1.25
0
1.25
1.25
1.22663
1.06375
1.03391
1.02529
1.0204
1.01479
1.00859
1.00261
1.00009
0.9999
0.997838
0.993064
0.987542
0.982024
0.976335
0.964033
0.919532
0.723758
1.25
1.25
1.25
0
1.25
0
0
1.25
0
0
0
1.25
0
0
0
1.25
0
1.25
1.25
1.25
0
1.25
0
1.25
0
0
0
0
0
0
1.25
1.25
1.23928
1.07045
1.03856
1.02918
1.02368
1.01751
1.01018
1.00339
1.00013
0.99989
0.997625
0.992457
0.986075
0.979481
0.973228
0.959083
0.901672
1.05942
0
1.25
1.25
0
1.25
0
1.25
1.25
1.25
1.25
0
1.25
0
1.25
0
0
0
1.25
1.25
1.25
1.25
1.25
1.25
1.25
1.25
1.25
1.25
0
1.25
0
1.25
1.25
1.25
1.07758
1.04353
1.0334
1.0272
1.02046
1.01193
1.00423
1.00019
0.999877
0.997384
0.991656
0.98479
0.97807
0.970713
0.95548
0.899855
1.00858
0
1.25
1.25
0
1.25
0
1.25
1.25
0
0
0
1.25
0
0
0
1.25
0
1.25
1.25
0
0
0
0
1.25
0
0
0
0
0
0
1.25
1.25
1.25
1.08482
1.04873
1.03788
1.03087
1.02332
1.01361
1.00471
1.00023
0.999865
0.997173
0.991081
0.983303
0.975038
0.96735
0.949449
0.883294
1.01666
0
1.25
1.25
0
1.25
0
0
1.25
1.25
1.25
0
1.25
0
1.25
1.25
0
0
1.25
1.25
1.25
1.25
1.25
1.25
1.25
1.25
1.25
1.25
0
0
0
1.25
1.25
1.25
1.09235
1.05418
1.04252
1.03469
1.026
1.01522
1.00496
1.00023
0.99985
0.99692
0.990245
0.98202
0.97367
0.964379
0.945365
0.877365
1.22942
1.25
0
1.25
0
1.25
0
1.25
1.25
1.25
0
0
1.25
0
0
0
1.25
0
0
1.25
0
0
0
0
0
0
0
0
0
0
0
1.25
1.25
1.25
1.09986
1.05998
1.04754
1.03895
1.02906
1.01711
1.0055
1.00025
0.999837
0.996714
0.989746
0.980428
0.970191
0.960729
0.938539
0.861937
1.25
0
1.25
1.25
1.25
1.25
0
1.25
1.25
1.25
0
0
0
0
1.25
1.25
0
0
1.25
1.25
1.25
1.25
1.25
1.25
1.25
1.25
0
1.25
0
0
0
1.25
1.25
1.25
1.10793
1.06632
1.05308
1.04372
1.03262
1.01927
1.0062
1.00028
0.99982
0.996467
0.98894
0.979325
0.969155
0.957468
0.934163
0.856388
1.25
1.25
0
0
0
1.25
0
0
1.25
0
0
0
1.25
0
0
0
1.25
0
0
1.25
0
0
0
0
0
0
0
0
0
0
0
0
1.25
1.25
1.11598
1.07302
1.05905
1.04888
1.03653
1.02163
1.007
1.00031
0.999807
0.996277
0.98861
0.977637
0.965071
0.953562
0.925951
0.845451
1.25
0
0
1.25
1.25
0
0
1.25
1.25
1.25
0
0
0
0
1.25
1.25
0
0
1.25
1.25
1.25
1.25
1.25
1.25
0
0
0
0
0
0
0
0
1.25
1.25
1.12446
1.08018
1.06548
1.05447
1.04079
1.0242
1.00788
1.00035
0.999787
0.996063
0.987896
0.977067
0.964759
0.951134
0.920249
0.848156
1.25
1.25
0
0
0
1.25
0
0
1.25
0
0
0
1.25
0
0
0
1.25
0
0
1.25
0
0
0
0
0
0
0
0
0
0
0
0
1.25
1.25
1.13289
1.08768
1.07237
1.0605
1.04543
1.02701
1.00885
1.00039
0.999772
0.995908
0.987834
0.975351
0.95914
0.945934
0.912396
0.83867
1.25
1.25
0
1.25
1.25
1.25
0
1.25
1.25
1.25
0
1.25
0
0
1.25
1.25
0
0
1.25
1.25
0
1.25
0
0
0
0
0
0
0
1.25
0
0
1.25
1.25
1.14169
1.09565
1.07966
1.06699
1.05041
1.03003
1.00992
1.00044
0.99975
0.995749
0.987327
0.975447
0.961279
0.943898
0.906606
0.882226
1.1768
0
1.25
0
0
1.25
0
0
0
1.25
0
0
1.25
1.25
0
0
1.25
0
0
0
0
0
0
0
0
0
0
0
0
1.25
0
0
1.25
1.25
1.15029
1.10392
1.08739
1.07387
1.05576
1.03329
1.01108
1.0005
0.999734
0.995646
0.987723
0.973685
0.953537
0.937849
0.901758
0.777624
0
0
1.25
0
0
0
0
1.25
1.25
1.25
0
1.25
0
0
1.25
1.25
0
0
1.25
1.25
0
0
0
0
0
0
0
0
0
1.25
0
0.488654
1.25
1.25
1.15928
1.11262
1.09557
1.08112
1.06143
1.03677
1.01233
1.00057
0.999708
0.995581
0.987608
0.974695
0.959717
0.936848
0.890786
1.05872
0
0
1.25
1.25
1.25
0
0
0
0
0
0
0
0
1.25
0
0
1.25
0
0
0
0
0
0
0
0
0
0
0
0
1.25
0
0.316489
1.25
1.25
1.16803
1.1215
1.10421
1.08877
1.06745
1.04049
1.0137
1.00064
0.999691
0.995561
0.988647
0.973082
0.948166
0.931883
0.88699
0.856637
0
0
1.25
0
1.25
0
0
1.25
1.25
0
0
1.25
0
0
1.25
1.25
0
0
1.25
1.25
0
0
0
0
0
0
0
0
0
1.25
0
1.25
1.25
1.25
1.17725
1.13079
1.11319
1.09677
1.07373
1.04441
1.01517
1.00073
0.999659
0.995646
0.989107
0.975979
0.959269
0.931084
0.879078
1.18311
0
0
1.25
1.25
1.25
0
0
0
0
0
0
0
0
1.25
0
0
1.25
0
0
0
0
0
0
0
0
0
0
0
0
0
1.25
1.25
1.25
1.25
1.18638
1.14002
1.12276
1.10513
1.08033
1.04855
1.01676
1.00082
0.99964
0.995746
0.991065
0.974185
0.943279
0.927576
0.876446
1.16454
0
0
1.25
0
1.25
0
0
0
1.25
1.25
0
1.25
0
0
0
1.25
0
0
1.25
1.25
0
0
0
0
0
0
0
0
0
0
1.25
1.25
1.25
1.25
1.1959
1.14884
1.13273
1.11357
1.08716
1.05285
1.01846
1.00093
0.999602
0.996057
0.992424
0.981282
0.961376
0.928174
0.873842
1.25
0
0
1.25
1.25
1.25
0
0
1.25
0
0
0
0
0
1.25
0
0
1.25
0
0
0
0
0
0
0
0
0
0
0
0
0
1.25
1.25
1.25
1.25
1.20499
1.15889
1.14258
1.12244
1.09425
1.05735
1.02028
1.00105
0.999581
0.996331
0.995641
0.977465
0.93884
0.926353
0.87995
1.25
0
0
1.25
0
1.25
0
0
0
0
1.25
0
1.25
1.25
0
0
1.25
0
0
1.25
1.25
0
0
0
0
0
0
0
0
0
0
1.25
1.25
1.25
1.25
1.21376
1.16951
1.15237
1.13165
1.10146
1.06199
1.02221
1.00119
0.999532
0.996972
0.998031
0.988771
0.968057
0.930104
0.886
1.25
0
0
1.25
1.25
1.25
0
0
1.25
0
0
0
0
0
1.25
1.25
0
1.25
0
0
0
0
0
0
0
0
0
0
0
0
0
1.25
1.25
1.25
1.25
1.22256
1.17969
1.16253
1.14105
1.10885
1.06683
1.02428
1.00136
0.999509
0.997473
1.00334
0.98682
0.935904
0.931797
0.916428
1.25
1.25
0
0
0
1.25
0
1.25
0
1.25
1.25
0
1.25
1.25
0
0
1.25
0
0
1.25
0
0
0
0
0
0
0
0
0
0
0
1.25
1.25
1.25
1.25
1.23107
1.18999
1.17283
1.15046
1.11629
1.07176
1.02646
1.00154
0.999447
0.99859
1.00818
1.00123
0.978465
0.939991
0.944147
1.20891
1.25
1.25
0
1.25
0
0
0
1.25
0
0
0
0
0
1.25
1.25
0
1.25
0
0
0
0
0
0
0
0
0
0
0
0
1.25
1.25
1.25
1.25
1.25
1.23944
1.20034
1.18331
1.16004
1.12387
1.07684
1.02879
1.00176
0.999418
0.999425
1.01313
1.00297
0.934626
0.942568
0.964435
0.546912
1.25
1.25
0
1.25
0
0
0
0
0
1.25
0
1.25
1.25
0
0
1.25
1.25
0
1.25
0
0
0
0
0
0
0
0
0
0
1.25
1.25
1.25
1.25
1.25
1.24756
1.21049
1.19369
1.1694
1.13136
1.08196
1.03122
1.00201
0.999337
1.00121
1.03013
1.01985
1.00071
0.942662
1.23676
0
1.25
1.25
0
0
0
0
0
1.25
0
0
0
0
0
1.25
1.25
0
0
0
0
0
0
0
0
0
0
0
0
0
0
1.25
1.25
1.25
1.25
1.25
1.25
1.22061
1.20423
1.17876
1.13896
1.08721
1.03381
1.0023
0.999293
1.00234
1.03278
1.02673
0.947378
0.938031
1.25
0
0
1.25
1.25
1.25
0
0
0
0
0
1.25
0
1.25
1.25
0
0
1.25
1.25
0
1.25
0
0
0
0
0
0
0
0
0
0
1.25
1.25
1.25
1.25
1.25
1.25
1.23039
1.21438
1.18776
1.14627
1.09242
1.0365
1.00264
0.999178
1.00499
1.05099
1.03722
1.04694
0.995681
1.25
0
0
1.25
0
0
0
0
0
1.25
0
0
0
0
0
1.25
1.25
0
0
0
0
0
0
0
0
0
0
0
0
0
0
1.25
1.25
1.25
1.25
1.25
1.25
1.24027
1.22448
1.19674
1.15356
1.09772
1.03937
1.00305
0.99911
1.00717
1.06822
1.03857
1.02879
0.887486
1.25
0
0
1.25
1.25
1.25
0
0
0
0
0
0
0
1.25
1.25
0
0
1.25
1.25
0
1.25
0
0
0
0
0
0
0
0
0
0
1.25
1.25
1.25
1.25
1.25
1.25
1.24965
1.23385
1.20502
1.16059
1.10277
1.04229
1.00352
0.99895
1.01047
1.09539
1.04554
1.07677
1.02986
1.25
0
0
1.25
0
1.25
0
0
0
1.25
0
0
0
0
0
0
1.25
0
0
0
0
0
0
0
0
0
0
0
0
0
1.25
1.25
1.25
1.25
1.25
1.25
1.25
1.25
1.24295
1.21333
1.16718
1.10781
1.0454
1.00407
0.998836
1.01349
1.12511
1.04592
1.13278
0.872186
1.25
1.25
0
1.25
1.25
1.25
0
0
0
0
0
0
0
1.25
1.25
0
0
1.25
1.25
0
1.25
0
0
0
0
0
0
0
0
0
1.25
1.25
1.25
1.25
1.25
1.25
1.25
1.25
1.25
1.22112
1.17309
1.11259
1.0485
1.00474
0.998587
1.01678
1.16956
1.06885
1.14353
1.09268
1.25
1.25
0
0
0
0
0
0
0
1.25
1.25
0
0
0
0
0
1.25
0
0
1.25
0
0
0
0
0
0
0
0
0
0
1.25
1.25
1.25
1.25
1.25
1.25
1.25
1.25
1.25
1.22845
1.17888
1.1173
1.05172
1.00556
0.998368
1.01982
1.206
1.08907
1.16309
1.24674
1.25
1.25
0
0
1.25
0
0
0
0
0
0
0
0
0
1.25
1.25
0
1.25
1.25
0
1.25
0
0
0
0
0
0
0
0
0
1.25
1.25
1.25
1.25
1.25
1.25
1.25
1.25
1.25
1.23439
1.18377
1.12142
1.05487
1.00653
0.997937
1.02221
1.25
1.09745
1.22213
1.21628
1.25
1.25
0
0
1.25
0
1.25
0
0
1.25
1.25
0
0
0
0
0
1.25
1.25
0
1.25
0
0
0
0
0
0
0
0
0
0
1.25
1.25
1.25
1.25
1.25
1.25
1.25
1.25
1.25
1.23997
1.18826
1.12533
1.05809
1.00772
0.997462
1.00907
1.25
1.06333
1.25
1.16558
1.25
1.25
0
0
1.25
0
0
0
0
0
0
0
0
0
1.25
1.25
0
0
1.25
0
1.25
0
0
0
0
0
0
0
0
0
1.25
1.25
1.25
1.25
1.25
1.25
1.25
1.25
1.25
1.24363
1.19137
1.12844
1.06106
1.00915
0.996596
1.00925
1.25
0.944478
1.25
0.946503
1.25
0
0
0
1.25
0
1.25
0
0
1.25
1.25
0
0
0
0
0
1.25
1.25
0
1.25
0
0
0
0
0
0
0
0
0
1.25
1.25
1.25
1.25
1.25
1.25
1.25
1.25
1.25
1.25
1.24717
1.19404
1.13112
1.06397
1.01089
0.99545
0.896506
1.25
0.727412
1.25
0.393032
1.25
1.25
0
1.25
1.25
0
0
0
0
0
0
0
0
0
1.25
1.25
0
0
1.25
0
0
0
0
0
0
0
0
0
0
1.25
1.25
1.25
1.25
1.25
1.25
1.25
1.25
1.25
1.25
1.24803
1.19484
1.13257
1.06634
1.01299
0.993469
0.821499
1.25
0.30285
1.25
0
1.25
1.25
0
0
1.25
0
1.25
0
0
1.25
1.25
0
0
1.25
0
0
1.25
1.25
1.25
1.25
1.25
0
0
0
0
0
0
0
0
1.25
1.25
1.25
1.25
1.25
1.25
1.25
1.25
1.25
1.25
1.24939
1.19526
1.13338
1.0684
1.01554
0.990787
0.471865
1.25
0
1.25
0
1.25
1.25
0
0
0
1.25
1.25
1.25
1.25
0
0
0
0
0
1.25
1.25
0
0
1.25
1.25
1.25
1.25
1.25
1.25
1.25
1.25
1.25
1.25
1.25
0
1.25
1.25
1.25
1.25
1.25
1.25
1.25
1.25
1.25
1.24133
1.18913
1.13002
1.06838
1.01841
0.986427
0.603943
1.25
0
1.25
0
1.25
1.25
0
0
0
1.25
1.25
1.25
0
1.25
1.25
0
0
1.25
0
0
1.25
1.25
1.25
1.25
1.25
1.25
1.25
1.25
1.25
1.25
1.25
1.25
1.25
0
0
0
1.25
1.25
1.25
1.25
1.25
1.25
1.25
1.22874
1.18108
1.12615
1.06815
1.02185
1.21935
1.00077
1.0016
1.00015
1.00007
0.99993
0.999358
0.999062
0.99901
0.999034
0.999176
0.999451
0.99985
1.00035
1.00092
1.00153
1.00214
1.00274
1.0032
1.00348
1.00371
1.00373
1.00368
1.00342
1.00285
1.00198
1.00078
0.999083
0.996831
0.99355
0.993156
1.03522
1.00623
1.0031
1.00264
1.00087
1.0008
1.00063
1.00046
1.00036
1.0003
1.00024
1.0002
1.00017
1.00016
1.00024
1.0001
1.00146
0.998794
1.20641
1.25
0.999818
1.00077
1.00133
1.00117
1.00175
1.0026
1.00308
1.0033
1.00345
1.00353
1.00358
1.00358
1.00357
1.00354
1.00349
1.00345
1.00339
1.00333
1.00331
1.00329
1.00312
1.00285
1.00262
1.00234
1.00204
1.00174
1.00138
1.00105
1.00127
1.00365
1.25
1.00478
1.00084
1.00011
1.0012
1.00098
1.00098
1.00102
1.001
1.00092
1.00084
1.00076
1.00068
1.0006
1.00053
1.00048
1.00104
0.999843
1.25
1.25
1.00005
1.00103
1.0012
1.00123
1.00172
1.00208
1.0023
1.00238
1.00238
1.00229
1.00214
1.00195
1.00173
1.0015
1.00127
1.00104
1.00081
1.00062
1.00051
1.00031
1.00026
1.00012
1.00004
1
1.00002
1.0001
1.00021
1.00059
1.00116
1.0042
1.11871
1.0007
0.999899
0.999672
0.999697
0.999747
0.999783
0.999807
0.999822
0.999829
0.999837
0.999843
0.999856
0.999864
0.999952
0.999887
1.00089
0.999767
1.25
1.22054
1.00003
1.00091
1.00151
1.00179
1.00247
1.00302
1.00343
1.0037
1.00385
1.00391
1.00388
1.0038
1.00368
1.00353
1.00336
1.00318
1.00299
1.00281
1.0026
1.00241
1.00227
1.00218
1.00208
1.00198
1.00192
1.00188
1.00188
1.00213
1.00272
1.0116
1.00598
0.997966
0.997789
0.998038
0.998231
0.998427
0.99862
0.998808
0.998974
0.999121
0.999246
0.999355
0.99946
0.999544
0.999707
0.999614
1.00061
0.999499
1.20402
1.17532
1.00003
1.00088
1.00146
1.00185
1.00256
1.00309
1.00348
1.00373
1.00386
1.00388
1.00384
1.00373
1.0036
1.00344
1.00326
1.00308
1.00291
1.00273
1.00256
1.00242
1.00223
1.0021
1.00196
1.00182
1.0017
1.00161
1.00158
1.00166
1.0024
1.01198
1.00072
0.998405
0.998547
0.998734
0.998881
0.999029
0.999182
0.999329
0.999462
0.999579
0.999678
0.999761
0.999826
0.999873
0.999988
0.999881
1.00059
0.999689
1.16118
1.13903
1.00007
1.00087
1.00184
1.0024
1.0032
1.00383
1.00425
1.0045
1.00462
1.00463
1.00456
1.00444
1.00428
1.00409
1.0039
1.0037
1.0035
1.00331
1.00313
1.00296
1.0028
1.00265
1.00251
1.00237
1.00225
1.00215
1.00218
1.00218
1.00313
1.03709
0.997021
0.997183
0.997527
0.997795
0.998087
0.998358
0.998619
0.998858
0.999078
0.999268
0.999429
0.999564
0.999679
0.999767
0.999903
0.999779
1.00046
0.999731
1.12616
1.10938
1.00009
1.00096
1.002
1.00266
1.00348
1.00409
1.0045
1.00474
1.00483
1.00481
1.00472
1.00458
1.0044
1.0042
1.00399
1.00377
1.00357
1.00336
1.00317
1.00299
1.00282
1.00266
1.00251
1.00235
1.00221
1.00206
1.00212
1.00199
1.00321
1.08768
0.997115
0.997144
0.997629
0.997876
0.998162
0.998425
0.998678
0.998913
0.999127
0.999313
0.999471
0.999603
0.999709
0.999785
0.999918
0.999822
1.00038
0.999771
1.09868
1.08594
1.00012
1.00107
1.00236
1.00316
1.00408
1.00472
1.00513
1.00535
1.00541
1.00536
1.00523
1.00505
1.00484
1.00461
1.00438
1.00415
1.00392
1.0037
1.0035
1.00331
1.00313
1.00297
1.00281
1.00264
1.00248
1.00232
1.00236
1.00219
1.00491
1.11027
0.996091
0.996627
0.997071
0.997408
0.997747
0.998076
0.99839
0.998683
0.998948
0.999178
0.999372
0.999533
0.999665
0.999765
0.999903
0.999782
1.00032
0.999803
1.07677
1.06722
1.00016
1.00122
1.00265
1.00357
1.00451
1.00514
1.00553
1.00571
1.00574
1.00566
1.0055
1.00529
1.00506
1.00481
1.00456
1.00431
1.00408
1.00385
1.00364
1.00344
1.00326
1.00308
1.00291
1.00274
1.00256
1.00244
1.00238
1.00224
1.00559
0.996753
0.995838
0.996533
0.996947
0.997296
0.997648
0.997985
0.998312
0.99862
0.998899
0.999142
0.999349
0.999519
0.999658
0.999756
0.999898
0.999816
1.00027
0.999833
1.05973
1.05257
1.00023
1.00144
1.00309
1.00412
1.00513
1.00578
1.00614
1.00629
1.00627
1.00615
1.00595
1.0057
1.00543
1.00516
1.00488
1.00462
1.00437
1.00413
1.00391
1.00371
1.00352
1.00334
1.00316
1.00299
1.00278
1.00273
1.00238
1.00273
1.00953
0.990934
0.995166
0.996094
0.996514
0.996911
0.997306
0.997693
0.998074
0.998431
0.998754
0.999037
0.999275
0.999469
0.999627
0.999741
0.999892
0.999786
1.00023
0.999856
1.04638
1.04101
1.00032
1.00167
1.00349
1.00465
1.00567
1.0063
1.00664
1.00674
1.00668
1.00651
1.00627
1.00599
1.0057
1.00539
1.0051
1.00482
1.00455
1.00431
1.00408
1.00387
1.00367
1.00349
1.00331
1.00313
1.00291
1.00296
1.00254
1.00339
1.01307
0.988882
0.994471
0.995715
0.996152
0.99658
0.997009
0.997431
0.997848
0.998242
0.998604
0.998922
0.99919
0.999409
0.999587
0.999713
0.999872
0.999813
1.00018
0.999876
1.03602
1.03202
1.00043
1.002
1.00404
1.00532
1.00638
1.007
1.0073
1.00735
1.00724
1.00702
1.00674
1.00642
1.00609
1.00576
1.00545
1.00515
1.00487
1.00461
1.00438
1.00416
1.00396
1.00377
1.00359
1.00339
1.0032