/*--------------------------------*- C++ -*----------------------------------*\
| =========                 |                                                 |
| \\      /  F ield         | OpenFOAM: The Open Source CFD Toolbox           |
|  \\    /   O peration     | Version:  2.1.0                                 |
|   \\  /    A nd           | Web:      www.OpenFOAM.org                      |
|    \\/     M anipulation  |                                                 |
\*---------------------------------------------------------------------------*/
FoamFile
{
    version     2.0;
    format      ascii;
    class       volScalarField;
    location    "5000";
    object      mut;
}
// * * * * * * * * * * * * * * * * * * * * * * * * * * * * * * * * * * * * * //

dimensions      [1 -1 -1 0 0 0 0];

internalField   nonuniform List<scalar> 
15000
(
3.8591e-05
6.79966e-05
2.21027e-05
2.59238e-06
4.06642e-07
2.40526e-07
1.55001e-07
1.83352e-07
1.8631e-07
1.97575e-07
2.05772e-07
2.14923e-07
2.21763e-07
2.26779e-07
2.38611e-07
2.52349e-07
2.64322e-07
2.71369e-07
2.85473e-07
2.95237e-07
3.02113e-07
3.09709e-07
3.2548e-07
3.23962e-07
3.16369e-07
3.1497e-07
3.10393e-07
3.08738e-07
3.02993e-07
2.96618e-07
2.84499e-07
2.76514e-07
2.65252e-07
2.56655e-07
2.46003e-07
2.36902e-07
2.27045e-07
2.17978e-07
2.0887e-07
2.00297e-07
1.93499e-07
1.84597e-07
1.83269e-07
1.56142e-07
2.12131e-07
2.73056e-07
4.33855e-06
2.24334e-05
6.82861e-05
3.85886e-05
4.85384e-05
7.86273e-05
2.7456e-05
8.6329e-06
2.57704e-07
2.14199e-07
1.52901e-07
1.83174e-07
2.00785e-07
2.16869e-07
2.22728e-07
2.46185e-07
2.64503e-07
2.63615e-07
2.1536e-07
2.1557e-07
2.48662e-07
2.59086e-07
2.48109e-07
2.5855e-07
2.67178e-07
2.61277e-07
2.59265e-07
2.61082e-07
2.71315e-07
2.78582e-07
2.82024e-07
2.79111e-07
2.75779e-07
2.67628e-07
2.69088e-07
2.65523e-07
2.64861e-07
2.58703e-07
2.55587e-07
2.5045e-07
2.45722e-07
2.39399e-07
2.3598e-07
2.38746e-07
2.47733e-07
2.38765e-07
2.30483e-07
1.7661e-07
3.0647e-07
1.44699e-06
8.81017e-06
2.75027e-05
7.87657e-05
4.85369e-05
5.3036e-05
9.69344e-05
3.51551e-05
1.01476e-05
2.30946e-06
2.57745e-07
1.56236e-07
3.92564e-07
2.73178e-07
2.81027e-07
2.82255e-07
2.58678e-07
2.27616e-07
2.60479e-07
3.22341e-07
3.20005e-07
3.05755e-07
2.9897e-07
3.18683e-07
3.11864e-07
3.01695e-07
3.1913e-07
3.19685e-07
2.94909e-07
3.02873e-07
3.17973e-07
3.17842e-07
3.13268e-07
3.1375e-07
3.18405e-07
3.13147e-07
3.11706e-07
3.05605e-07
3.05171e-07
3.00557e-07
2.97949e-07
2.94416e-07
2.92153e-07
2.8622e-07
2.694e-07
2.46613e-07
2.28791e-07
2.8991e-07
1.43704e-07
1.60508e-07
1.17293e-06
9.99853e-06
3.52969e-05
9.7107e-05
5.30467e-05
5.23945e-05
0.00012374
4.44582e-05
1.3861e-05
2.62414e-06
1.64848e-07
1.01957e-07
2.74283e-07
2.34162e-07
3.11647e-07
3.01901e-07
3.39402e-07
3.56051e-07
3.53569e-07
2.76261e-07
2.73507e-07
3.34158e-07
3.48561e-07
3.28186e-07
3.48032e-07
3.54919e-07
3.43112e-07
3.46606e-07
3.3867e-07
3.41379e-07
3.52861e-07
3.56741e-07
3.56259e-07
3.55019e-07
3.41654e-07
3.44046e-07
3.4031e-07
3.41124e-07
3.33751e-07
3.31305e-07
3.25531e-07
3.20939e-07
3.13703e-07
3.11097e-07
3.16578e-07
3.55735e-07
2.67234e-07
3.8812e-07
1.10296e-07
3.33606e-07
4.72783e-06
1.40625e-05
4.45195e-05
0.000123783
5.24064e-05
5.08555e-05
0.000158494
5.93346e-05
1.6796e-05
5.71888e-06
4.79155e-07
9.60712e-08
2.94775e-07
2.12218e-07
3.30377e-07
2.82341e-07
2.72909e-07
2.3966e-07
2.70289e-07
3.50005e-07
3.49855e-07
3.33839e-07
3.22608e-07
3.49557e-07
3.42436e-07
3.27114e-07
3.51272e-07
3.52836e-07
3.20766e-07
3.29959e-07
3.50251e-07
3.50574e-07
3.45254e-07
3.45984e-07
3.51649e-07
3.44238e-07
3.42211e-07
3.34061e-07
3.32901e-07
3.26397e-07
3.22252e-07
3.16514e-07
3.12871e-07
3.06296e-07
2.73289e-07
2.79649e-07
1.8781e-07
2.45047e-07
8.91739e-08
2.99136e-07
4.14101e-06
1.67084e-05
5.94403e-05
0.000158537
5.08638e-05
4.96549e-05
0.000189161
8.08223e-05
2.23969e-05
5.11845e-06
5.542e-07
8.73389e-08
1.86319e-07
1.73628e-07
3.69602e-07
2.89226e-07
3.69074e-07
3.69579e-07
3.73098e-07
2.92205e-07
2.80887e-07
3.466e-07
3.65033e-07
3.42686e-07
3.63623e-07
3.72038e-07
3.59901e-07
3.62454e-07
3.55227e-07
3.57613e-07
3.70067e-07
3.7469e-07
3.73518e-07
3.71948e-07
3.56834e-07
3.59903e-07
3.55401e-07
3.55997e-07
3.47662e-07
3.44533e-07
3.38671e-07
3.33169e-07
3.22003e-07
3.3389e-07
2.96194e-07
4.44744e-07
1.87493e-07
2.14593e-07
9.78559e-08
8.93543e-07
6.68804e-06
2.25767e-05
8.08683e-05
0.000189113
4.96596e-05
4.89815e-05
0.000221018
0.000106961
2.93705e-05
7.78648e-06
1.64281e-06
1.15415e-07
1.99799e-07
1.68525e-07
3.96829e-07
2.69329e-07
3.15512e-07
2.53489e-07
2.88106e-07
3.87335e-07
3.90393e-07
3.71879e-07
3.5366e-07
3.89647e-07
3.81195e-07
3.59081e-07
3.91328e-07
3.92998e-07
3.52526e-07
3.63088e-07
3.8955e-07
3.89729e-07
3.8319e-07
3.84377e-07
3.91781e-07
3.81808e-07
3.79477e-07
3.68978e-07
3.68077e-07
3.59456e-07
3.53513e-07
3.50828e-07
3.32593e-07
3.55916e-07
2.60468e-07
3.21233e-07
1.56655e-07
1.83169e-07
1.03072e-07
1.21981e-06
6.53365e-06
2.92879e-05
0.000107031
0.000221004
4.89834e-05
4.87668e-05
0.000250171
0.00013978
3.99478e-05
8.19406e-06
2.33071e-06
1.29023e-07
1.71374e-07
1.53981e-07
3.91777e-07
2.63904e-07
4.32332e-07
3.78166e-07
4.17699e-07
3.17423e-07
2.963e-07
3.70662e-07
3.95898e-07
3.69716e-07
3.91892e-07
4.03064e-07
3.89951e-07
3.90451e-07
3.83362e-07
3.85779e-07
4.00752e-07
4.0693e-07
4.04874e-07
4.03296e-07
3.8517e-07
3.89858e-07
3.8415e-07
3.8491e-07
3.74818e-07
3.72433e-07
3.61461e-07
3.65841e-07
3.30036e-07
3.87066e-07
2.70653e-07
4.77124e-07
1.62427e-07
1.91689e-07
1.51936e-07
2.77651e-06
9.22908e-06
4.01154e-05
0.000139814
0.000250119
4.8767e-05
4.88497e-05
0.000275028
0.00017441
5.42603e-05
1.17919e-05
3.11926e-06
2.23392e-07
2.19361e-07
1.62204e-07
3.95917e-07
2.52052e-07
3.5817e-07
2.59044e-07
3.04843e-07
4.02639e-07
4.20022e-07
3.98748e-07
3.74517e-07
4.1725e-07
4.08298e-07
3.80855e-07
4.18608e-07
4.2016e-07
3.75319e-07
3.8614e-07
4.16954e-07
4.16821e-07
4.09774e-07
4.11004e-07
4.19497e-07
4.07393e-07
4.05112e-07
3.93243e-07
3.91363e-07
3.84897e-07
3.69503e-07
3.85e-07
3.31954e-07
4.03058e-07
2.4397e-07
3.24173e-07
1.52539e-07
1.98999e-07
1.93281e-07
2.68183e-06
1.08829e-05
5.41739e-05
0.000174447
0.000275012
4.88491e-05
4.90984e-05
0.000296518
0.000212955
7.25093e-05
1.43449e-05
3.20037e-06
2.91496e-07
2.05758e-07
1.612e-07
3.86639e-07
2.50627e-07
4.76501e-07
3.68627e-07
4.65371e-07
3.3532e-07
3.09799e-07
3.84685e-07
4.20074e-07
3.90637e-07
4.11817e-07
4.26601e-07
4.13213e-07
4.10678e-07
4.05034e-07
4.07326e-07
4.24025e-07
4.31631e-07
4.2839e-07
4.26715e-07
4.06548e-07
4.12662e-07
4.05573e-07
4.07547e-07
3.92827e-07
3.97556e-07
3.71308e-07
3.99609e-07
3.25127e-07
4.28291e-07
2.58227e-07
4.62781e-07
1.69646e-07
2.3955e-07
3.51603e-07
3.64587e-06
1.51129e-05
7.26665e-05
0.000212982
0.000296481
4.90975e-05
4.94267e-05
0.000314675
0.000251023
9.56558e-05
2.04389e-05
4.35977e-06
6.30292e-07
3.23137e-07
1.81526e-07
3.99496e-07
2.49549e-07
3.91059e-07
2.61217e-07
3.18747e-07
4.04173e-07
4.47673e-07
4.16857e-07
3.90774e-07
4.37227e-07
4.29054e-07
3.96905e-07
4.3903e-07
4.403e-07
3.92995e-07
4.03714e-07
4.3785e-07
4.36762e-07
4.2979e-07
4.30755e-07
4.40283e-07
4.26292e-07
4.234e-07
4.12628e-07
4.05483e-07
4.0833e-07
3.74999e-07
4.1603e-07
3.25417e-07
4.35368e-07
2.4068e-07
3.27651e-07
1.69647e-07
2.71002e-07
5.4016e-07
3.89352e-06
1.9885e-05
9.55667e-05
0.00025103
0.000314665
4.94256e-05
4.99262e-05
0.000330621
0.000288699
0.000122284
2.70862e-05
4.91175e-06
9.29445e-07
2.75546e-07
1.89207e-07
4.0321e-07
2.54903e-07
4.93632e-07
3.60202e-07
5.08572e-07
3.47106e-07
3.22034e-07
3.90264e-07
4.4057e-07
4.06229e-07
4.25823e-07
4.44466e-07
4.3135e-07
4.25333e-07
4.21847e-07
4.24039e-07
4.41758e-07
4.50542e-07
4.46017e-07
4.44571e-07
4.22492e-07
4.3057e-07
4.20443e-07
4.26693e-07
4.0286e-07
4.20456e-07
3.74295e-07
4.25284e-07
3.2146e-07
4.52505e-07
2.62668e-07
4.91178e-07
2.0255e-07
3.59077e-07
1.13108e-06
5.40618e-06
2.75896e-05
0.000122428
0.000288739
0.000330601
4.9925e-05
5.01795e-05
0.000344684
0.000328218
0.000152851
3.73186e-05
6.97233e-06
1.99068e-06
5.24905e-07
2.21993e-07
4.23162e-07
2.6262e-07
4.1252e-07
2.66777e-07
3.27307e-07
4.0257e-07
4.75655e-07
4.29039e-07
4.05947e-07
4.52162e-07
4.47306e-07
4.09765e-07
4.56109e-07
4.56944e-07
4.08285e-07
4.18551e-07
4.55258e-07
4.53316e-07
4.46576e-07
4.4744e-07
4.57256e-07
4.42659e-07
4.36947e-07
4.3074e-07
4.14193e-07
4.30299e-07
3.77594e-07
4.38345e-07
3.2561e-07
4.51651e-07
2.52162e-07
3.41788e-07
2.03276e-07
3.78017e-07
1.86513e-06
6.37733e-06
3.69421e-05
0.000152773
0.000328187
0.000344676
5.0179e-05
5.05309e-05
0.000357376
0.000367706
0.000187027
4.92026e-05
8.36909e-06
2.12717e-06
3.49916e-07
2.30003e-07
4.27424e-07
2.74541e-07
4.97517e-07
3.64169e-07
5.44672e-07
3.59795e-07
3.33898e-07
3.94104e-07
4.62521e-07
4.2042e-07
4.39183e-07
4.61023e-07
4.48945e-07
4.38656e-07
4.37779e-07
4.39888e-07
4.58132e-07
4.68406e-07
4.62375e-07
4.61705e-07
4.37043e-07
4.48942e-07
4.33209e-07
4.47069e-07
4.11009e-07
4.43408e-07
3.78755e-07
4.44028e-07
3.28112e-07
4.66057e-07
2.84097e-07
5.31685e-07
2.52387e-07
4.92525e-07
2.24435e-06
8.78996e-06
4.95781e-05
0.000187143
0.000367705
0.000357371
5.05299e-05
5.09127e-05
0.000369202
0.000401445
0.000224749
6.5236e-05
1.21304e-05
2.58378e-06
7.29904e-07
2.74067e-07
4.4042e-07
2.86852e-07
4.2828e-07
2.77944e-07
3.32949e-07
4.02249e-07
5.0082e-07
4.38484e-07
4.20811e-07
4.63303e-07
4.64352e-07
4.20502e-07
4.70975e-07
4.70642e-07
4.2208e-07
4.31429e-07
4.70214e-07
4.67295e-07
4.61015e-07
4.62134e-07
4.71068e-07
4.57918e-07
4.47254e-07
4.48388e-07
4.21095e-07
4.49139e-07
3.82394e-07
4.52701e-07
3.35268e-07
4.59816e-07
2.73384e-07
3.53355e-07
2.43988e-07
4.9323e-07
2.39045e-06
1.14047e-05
6.49416e-05
0.000224668
0.000401442
0.000369186
5.09122e-05
5.12973e-05
0.0003798
0.000431964
0.0002636
8.37755e-05
1.48629e-05
2.98158e-06
4.6496e-07
2.7318e-07
4.33377e-07
3.00333e-07
4.89088e-07
3.74313e-07
5.62864e-07
3.72251e-07
3.42557e-07
3.95546e-07
4.79706e-07
4.30695e-07
4.48325e-07
4.72259e-07
4.62727e-07
4.47498e-07
4.49877e-07
4.51921e-07
4.69912e-07
4.81657e-07
4.73643e-07
4.74718e-07
4.46817e-07
4.6406e-07
4.40912e-07
4.63229e-07
4.16635e-07
4.58027e-07
3.83799e-07
4.55536e-07
3.40363e-07
4.66003e-07
3.13047e-07
5.36912e-07
3.09082e-07
6.47326e-07
3.08445e-06
1.54323e-05
8.408e-05
0.000263718
0.000431969
0.000379811
5.12966e-05
5.16786e-05
0.000389754
0.000460896
0.000296051
0.000106327
2.17136e-05
3.85103e-06
1.04856e-06
3.24882e-07
4.37083e-07
3.1565e-07
4.35374e-07
2.9236e-07
3.3587e-07
4.03569e-07
5.18861e-07
4.45792e-07
4.33058e-07
4.70325e-07
4.78503e-07
4.28104e-07
4.82653e-07
4.80367e-07
4.33499e-07
4.41476e-07
4.81592e-07
4.77664e-07
4.71747e-07
4.73702e-07
4.80371e-07
4.70273e-07
4.53943e-07
4.61949e-07
4.26682e-07
4.60915e-07
3.88164e-07
4.61022e-07
3.49636e-07
4.56611e-07
2.98097e-07
3.54609e-07
2.81329e-07
7.21966e-07
3.51653e-06
2.04411e-05
0.00010608
0.000296067
0.000460865
0.00038972
5.1678e-05
5.20522e-05
0.000398863
0.000484165
0.00032701
0.000129778
2.60497e-05
4.57227e-06
7.97438e-07
3.09268e-07
4.26168e-07
3.25455e-07
4.75319e-07
3.88221e-07
5.672e-07
3.85773e-07
3.48699e-07
3.96928e-07
4.92645e-07
4.38823e-07
4.54637e-07
4.79933e-07
4.73838e-07
4.53539e-07
4.5934e-07
4.61384e-07
4.78528e-07
4.91859e-07
4.8141e-07
4.85116e-07
4.53472e-07
4.76662e-07
4.46112e-07
4.75495e-07
4.21892e-07
4.66691e-07
3.90917e-07
4.60774e-07
3.55614e-07
4.60048e-07
3.42649e-07
5.16749e-07
3.58262e-07
1.0775e-06
4.75329e-06
2.71453e-05
0.000130029
0.000327022
0.000484193
0.000398897
5.20519e-05
5.242e-05
0.000407426
0.000504882
0.000356784
0.000156023
3.59472e-05
6.08169e-06
1.90412e-06
3.73615e-07
4.22782e-07
3.42085e-07
4.36114e-07
3.07658e-07
3.37293e-07
4.05695e-07
5.2782e-07
4.52485e-07
4.41958e-07
4.74294e-07
4.89419e-07
4.33227e-07
4.91178e-07
4.86534e-07
4.4276e-07
4.48979e-07
4.89703e-07
4.84933e-07
4.79164e-07
4.82344e-07
4.85983e-07
4.79458e-07
4.58166e-07
4.70996e-07
4.31454e-07
4.66462e-07
3.94835e-07
4.6276e-07
3.64819e-07
4.48664e-07
3.20202e-07
3.4968e-07
3.16528e-07
1.43014e-06
5.5695e-06
3.50008e-05
0.000155823
0.000356823
0.000504863
0.000407367
5.2419e-05
5.27744e-05
0.000415102
0.000523141
0.000385304
0.000182318
4.3736e-05
7.17713e-06
1.94057e-06
3.41924e-07
4.1516e-07
3.47722e-07
4.59948e-07
4.02374e-07
5.64199e-07
3.99897e-07
3.53338e-07
3.98407e-07
5.01358e-07
4.45975e-07
4.5849e-07
4.85584e-07
4.82715e-07
4.57709e-07
4.67031e-07
4.69141e-07
4.84933e-07
4.99977e-07
4.86834e-07
4.93564e-07
4.58214e-07
4.86893e-07
4.50325e-07
4.83774e-07
4.27607e-07
4.70956e-07
3.98879e-07
4.61457e-07
3.71499e-07
4.50908e-07
3.70267e-07
4.9193e-07
4.02107e-07
1.97681e-06
7.68908e-06
4.46019e-05
0.000182531
0.000385288
0.00052315
0.000415171
5.27743e-05
5.31173e-05
0.000422337
0.000539748
0.000412496
0.000210722
5.6051e-05
9.78391e-06
2.19934e-06
4.21738e-07
4.1235e-07
3.64044e-07
4.34586e-07
3.23759e-07
3.38533e-07
4.08819e-07
5.32093e-07
4.59938e-07
4.49181e-07
4.7768e-07
4.98648e-07
4.3753e-07
4.98268e-07
4.91211e-07
4.51162e-07
4.55366e-07
4.96379e-07
4.90959e-07
4.8518e-07
4.89727e-07
4.90442e-07
4.86811e-07
4.62199e-07
4.77875e-07
4.36903e-07
4.69045e-07
4.03006e-07
4.61923e-07
3.80397e-07
4.40961e-07
3.38129e-07
3.47092e-07
3.52641e-07
2.13777e-06
8.97047e-06
5.5311e-05
0.000210567
0.000412546
0.000539769
0.000422287
5.31174e-05
5.34485e-05
0.000428881
0.000554873
0.000438244
0.000239217
6.7121e-05
1.13776e-05
2.43823e-06
3.89073e-07
4.08152e-07
3.64232e-07
4.47974e-07
4.13947e-07
5.57835e-07
4.14326e-07
3.57529e-07
4.00279e-07
5.06856e-07
4.52777e-07
4.60677e-07
4.90143e-07
4.89826e-07
4.60942e-07
4.73351e-07
4.75734e-07
4.8979e-07
5.06534e-07
4.90679e-07
5.00301e-07
4.62028e-07
4.94538e-07
4.5429e-07
4.88947e-07
4.33475e-07
4.7257e-07
4.069e-07
4.59816e-07
3.85865e-07
4.42806e-07
3.90833e-07
4.74222e-07
4.62898e-07
2.4775e-06
1.2297e-05
6.78313e-05
0.000239416
0.00043821
0.00055484
0.000428878
5.34469e-05
5.37635e-05
0.000434871
0.000568657
0.000462234
0.00026922
8.21261e-05
1.53974e-05
2.88325e-06
5.08055e-07
4.03435e-07
3.80361e-07
4.31915e-07
3.38856e-07
3.39649e-07
4.11008e-07
5.3195e-07
4.66893e-07
4.54401e-07
4.8005e-07
5.05696e-07
4.4112e-07
5.03625e-07
4.94483e-07
4.5843e-07
4.60657e-07
5.01511e-07
4.95522e-07
4.8975e-07
4.95396e-07
4.93748e-07
4.91896e-07
4.65757e-07
4.81862e-07
4.42281e-07
4.69144e-07
4.10568e-07
4.591e-07
3.93452e-07
4.34029e-07
3.51388e-07
3.44625e-07
4.19383e-07
2.77897e-06
1.4158e-05
8.15048e-05
0.000269085
0.000462299
0.000568698
0.000434879
5.37642e-05
5.40686e-05
0.000440417
0.000581411
0.000485257
0.000291621
9.63087e-05
1.76091e-05
3.27781e-06
4.86892e-07
4.0215e-07
3.77469e-07
4.38895e-07
4.21756e-07
5.52123e-07
4.28134e-07
3.6131e-07
4.02406e-07
5.10121e-07
4.59491e-07
4.61522e-07
4.94452e-07
4.95777e-07
4.63826e-07
4.79036e-07
4.81969e-07
4.9403e-07
5.12423e-07
4.94105e-07
5.06195e-07
4.6591e-07
5.00806e-07
4.58759e-07
4.92661e-07
4.39896e-07
4.73338e-07
4.14669e-07
4.58305e-07
3.9859e-07
4.36424e-07
4.08067e-07
4.608e-07
5.86613e-07
3.37447e-06
1.8686e-05
9.69215e-05
0.000291714
0.000485207
0.00058137
0.000440403
5.40669e-05
5.43579e-05
0.000445523
0.000593065
0.000506885
0.00031238
0.000113036
2.33656e-05
3.989e-06
6.93982e-07
3.97894e-07
3.94485e-07
4.29083e-07
3.53571e-07
3.41658e-07
4.12681e-07
5.30766e-07
4.7399e-07
4.59141e-07
4.82669e-07
5.11737e-07
4.44914e-07
5.08271e-07
4.97669e-07
4.65305e-07
4.65672e-07
5.06251e-07
4.99776e-07
4.9416e-07
5.00506e-07
4.97284e-07
4.96181e-07
4.69955e-07
4.84952e-07
4.4826e-07
4.69266e-07
4.18099e-07
4.5661e-07
4.05022e-07
4.29377e-07
3.62869e-07
3.44284e-07
5.62793e-07
3.75775e-06
2.19126e-05
0.000112481
0.000312337
0.000506969
0.000593117
0.000445531
5.43587e-05
5.46393e-05
0.000450314
0.000604004
0.000527658
0.000332393
0.000128659
2.61766e-05
4.55767e-06
7.05294e-07
4.0037e-07
3.87572e-07
4.33073e-07
4.26557e-07
5.46805e-07
4.41307e-07
3.65103e-07
4.04825e-07
5.12038e-07
4.65846e-07
4.61663e-07
4.98653e-07
5.00701e-07
4.66638e-07
4.84171e-07
4.87996e-07
4.97875e-07
5.17743e-07
4.97381e-07
5.11382e-07
4.69997e-07
5.06066e-07
4.63601e-07
4.95591e-07
4.46513e-07
4.73956e-07
4.21954e-07
4.57428e-07
4.10042e-07
4.31472e-07
4.22152e-07
4.54273e-07
8.57245e-07
4.72391e-06
2.74045e-05
0.000129209
0.000332465
0.000527592
0.000603952
0.000450299
5.46375e-05
5.49058e-05
0.000454743
0.000614036
0.000546975
0.000351984
0.000146424
3.36479e-05
5.5901e-06
1.1143e-06
3.96888e-07
4.0433e-07
4.25143e-07
3.67555e-07
3.44724e-07
4.12948e-07
5.2846e-07
4.80374e-07
4.6325e-07
4.848e-07
5.16436e-07
4.48496e-07
5.11909e-07
5.00533e-07
4.71516e-07
4.70207e-07
5.10423e-07
5.03528e-07
4.98334e-07
5.04891e-07
5.00859e-07
4.99676e-07
4.74413e-07
4.8733e-07
4.54284e-07
4.69524e-07
4.25396e-07
4.54721e-07
4.13975e-07
4.26938e-07
3.72374e-07
3.47139e-07
8.89387e-07
5.22435e-06
3.20519e-05
0.000145932
0.000351979
0.000547081
0.000614101
0.00045475
5.49064e-05
5.51659e-05
0.00045894
0.000623607
0.000565654
0.000370919
0.000163022
3.69908e-05
6.35155e-06
1.19212e-06
4.04241e-07
3.95372e-07
4.28614e-07
4.29006e-07
5.41596e-07
4.53174e-07
3.68776e-07
4.07003e-07
5.12799e-07
4.71811e-07
4.61208e-07
5.02839e-07
5.0458e-07
4.69342e-07
4.88919e-07
4.93979e-07
5.01535e-07
5.22644e-07
5.00733e-07
5.16142e-07
4.74454e-07
5.1078e-07
4.68838e-07
4.98381e-07
4.53165e-07
4.75133e-07
4.29149e-07
4.57021e-07
4.19437e-07
4.2953e-07
4.34752e-07
4.54161e-07
1.44904e-06
6.61433e-06
3.84201e-05
0.00016352
0.000370974
0.000565579
0.000623542
0.000458921
5.51639e-05
5.5412e-05
0.000462824
0.000632389
0.000582958
0.000389295
0.000181374
4.56299e-05
7.76182e-06
2.02965e-06
4.0359e-07
4.0948e-07
4.21768e-07
3.80145e-07
3.48301e-07
4.12126e-07
5.25212e-07
4.85761e-07
4.66723e-07
4.86322e-07
5.1999e-07
4.51752e-07
5.14723e-07
5.03284e-07
4.77077e-07
4.74335e-07
5.14259e-07
5.07065e-07
5.02543e-07
5.08923e-07
5.04737e-07
5.02935e-07
4.79263e-07
4.89704e-07
4.60402e-07
4.7028e-07
4.32773e-07
4.53277e-07
4.21667e-07
4.262e-07
3.78e-07
3.57381e-07
1.6291e-06
7.24836e-06
4.42462e-05
0.000180964
0.000389324
0.000583088
0.000632467
0.000462827
5.54123e-05
5.56531e-05
0.000466538
0.000640906
0.000599896
0.000407153
0.000198414
5.01818e-05
8.65001e-06
2.21663e-06
4.11544e-07
4.00538e-07
4.25816e-07
4.28016e-07
5.36905e-07
4.63171e-07
3.71943e-07
4.08665e-07
5.12433e-07
4.77108e-07
4.60056e-07
5.06969e-07
5.0745e-07
4.71815e-07
4.9351e-07
5.00143e-07
5.05263e-07
5.27391e-07
5.04321e-07
5.20944e-07
4.79585e-07
5.15609e-07
4.7473e-07
5.01706e-07
4.60237e-07
4.77285e-07
4.3669e-07
4.57703e-07
4.27408e-07
4.30845e-07
4.44322e-07
4.6062e-07
2.22138e-06
9.10301e-06
5.14704e-05
0.00019888
0.000407202
0.000599814
0.00064083
0.000466511
5.56508e-05
5.58812e-05
0.000469985
0.000648694
0.000615512
0.000424371
0.000216806
5.94271e-05
1.05525e-05
2.38397e-06
4.16192e-07
4.14643e-07
4.18681e-07
3.90736e-07
3.52592e-07
4.10427e-07
5.21609e-07
4.90307e-07
4.69541e-07
4.87297e-07
5.2282e-07
4.54534e-07
5.16884e-07
5.06148e-07
4.81972e-07
4.78102e-07
5.1805e-07
5.10887e-07
5.07498e-07
5.13357e-07
5.09624e-07
5.07073e-07
4.85445e-07
4.93476e-07
4.67796e-07
4.73166e-07
4.40966e-07
4.54899e-07
4.30607e-07
4.27193e-07
3.86029e-07
3.74067e-07
2.33643e-06
9.88414e-06
5.83076e-05
0.000216501
0.000424451
0.000615674
0.000648786
0.000469984
5.58809e-05
5.61049e-05
0.000473321
0.000656378
0.00063069
0.000441168
0.000234082
6.52109e-05
1.15805e-05
2.53482e-06
4.29478e-07
4.04321e-07
4.23041e-07
4.25258e-07
5.31069e-07
4.70527e-07
3.74732e-07
4.09453e-07
5.10784e-07
4.81251e-07
4.57983e-07
5.10799e-07
5.0914e-07
4.73718e-07
4.98119e-07
5.06697e-07
5.09233e-07
5.32173e-07
5.08397e-07
5.26335e-07
4.85854e-07
5.21342e-07
4.8177e-07
5.06509e-07
4.68319e-07
4.81459e-07
4.45259e-07
4.60312e-07
4.36573e-07
4.33434e-07
4.53258e-07
4.85256e-07
2.56323e-06
1.22345e-05
6.63054e-05
0.000234557
0.000441215
0.000630603
0.000656293
0.000473278
5.61021e-05
5.63177e-05
0.000476415
0.000663354
0.000644294
0.000457086
0.00025272
7.4944e-05
1.40043e-05
2.8078e-06
4.41263e-07
4.15428e-07
4.13913e-07
3.983e-07
3.55568e-07
4.06576e-07
5.15211e-07
4.91997e-07
4.70018e-07
4.85968e-07
5.2335e-07
4.55504e-07
5.17139e-07
5.08157e-07
4.85119e-07
4.80537e-07
5.20898e-07
5.14397e-07
5.12803e-07
5.17712e-07
5.1492e-07
5.11743e-07
4.92475e-07
4.98307e-07
4.75941e-07
4.77514e-07
4.49728e-07
4.57982e-07
4.39804e-07
4.30137e-07
3.93416e-07
4.05125e-07
2.73821e-06
1.31759e-05
7.40295e-05
0.000252553
0.000457244
0.000644489
0.000663457
0.000476406
5.63159e-05
5.65247e-05
0.000479443
0.000670326
0.00065771
0.000472703
0.000270104
8.17924e-05
1.51922e-05
3.01166e-06
4.63345e-07
4.03435e-07
4.18851e-07
4.19763e-07
5.23408e-07
4.74146e-07
3.75921e-07
4.08189e-07
5.06949e-07
4.83287e-07
4.53995e-07
5.13743e-07
5.08969e-07
4.74187e-07
5.02869e-07
5.13816e-07
5.13535e-07
5.37176e-07
5.13294e-07
5.33004e-07
4.93902e-07
5.28986e-07
4.90788e-07
5.13918e-07
4.78541e-07
4.88584e-07
4.55902e-07
4.66202e-07
4.47349e-07
4.39988e-07
4.6237e-07
5.34847e-07
3.06444e-06
1.60455e-05
8.27815e-05
0.000270643
0.000472774
0.000657629
0.000670234
0.000479383
5.65217e-05
5.67259e-05
0.00048226
0.000676598
0.000669633
0.000487335
0.000288558
9.20084e-05
1.81474e-05
3.38037e-06
4.85701e-07
4.12224e-07
4.07569e-07
4.02298e-07
3.56114e-07
4.00252e-07
5.05356e-07
4.90309e-07
4.67515e-07
4.81656e-07
5.21364e-07
4.54016e-07
5.15043e-07
5.09445e-07
4.85969e-07
4.81283e-07
5.22902e-07
5.18192e-07
5.19262e-07
5.23005e-07
5.21717e-07
5.18509e-07
5.02001e-07
5.0614e-07
4.86878e-07
4.85507e-07
4.61266e-07
4.65297e-07
4.51297e-07
4.37749e-07
4.02877e-07
4.60137e-07
3.29135e-06
1.71585e-05
9.12959e-05
0.000288582
0.00048761
0.000669874
0.000676709
0.000482227
5.67209e-05
5.69159e-05
0.000484989
0.000682948
0.000681587
0.000501843
0.000305469
9.97363e-05
1.95071e-05
3.63406e-06
5.18746e-07
3.97302e-07
4.11263e-07
4.10379e-07
5.12408e-07
4.72253e-07
3.7418e-07
4.03711e-07
4.99326e-07
4.81706e-07
4.46591e-07
5.14828e-07
5.06059e-07
4.71774e-07
5.07702e-07
5.21738e-07
5.18182e-07
5.42537e-07
5.19176e-07
5.41918e-07
5.04788e-07
5.40036e-07
5.03196e-07
5.2579e-07
4.92721e-07
5.00728e-07
4.70508e-07
4.77484e-07
4.61718e-07
4.51961e-07
4.75173e-07
6.24703e-07
3.7221e-06
2.05647e-05
0.000100708
0.000306108
0.000501974
0.00068152
0.000682851
0.000484935
5.69127e-05
5.71077e-05
0.000487625
0.00068861
0.00069211
0.00051526
0.000321706
0.000110309
2.29959e-05
4.09802e-06
5.57481e-07
4.03958e-07
3.97546e-07
4.00736e-07
3.52814e-07
3.89888e-07
4.90259e-07
4.83695e-07
4.60253e-07
4.7292e-07
5.15672e-07
4.48367e-07
5.09306e-07
5.09509e-07
4.82979e-07
4.79156e-07
5.23334e-07
5.22275e-07
5.27272e-07
5.29754e-07
5.30769e-07
5.28658e-07
5.15626e-07
5.18849e-07
5.02805e-07
4.99379e-07
4.77826e-07
4.79036e-07
4.6758e-07
4.51749e-07
4.16596e-07
5.55479e-07
3.97796e-06
2.18564e-05
0.000109848
0.000321892
0.000515709
0.000692415
0.000688722
0.000487536
5.70985e-05
5.72816e-05
0.000490054
0.000694413
0.000702956
0.000528822
0.000332736
0.000118588
2.45219e-05
4.40135e-06
6.02308e-07
3.85615e-07
3.98822e-07
3.95761e-07
4.96451e-07
4.6347e-07
3.67691e-07
3.94506e-07
4.86292e-07
4.74541e-07
4.33885e-07
5.12554e-07
4.99085e-07
4.64763e-07
5.11476e-07
5.30502e-07
5.23059e-07
5.48192e-07
5.26288e-07
5.54368e-07
5.20129e-07
5.56776e-07
5.2134e-07
5.45312e-07
5.13973e-07
5.2155e-07
4.92683e-07
4.97813e-07
4.83549e-07
4.72777e-07
4.96071e-07
7.82672e-07
4.52924e-06
2.55904e-05
0.000119666
0.000333259
0.000529086
0.000702928
0.000694307
0.000490009
5.72772e-05
5.74647e-05
0.000492582
0.00069954
0.000712604
0.000541293
0.000343734
0.000129043
2.85021e-05
4.96688e-06
6.63051e-07
3.90087e-07
3.82361e-07
3.9125e-07
3.43507e-07
3.73992e-07
4.68177e-07
4.697e-07
4.46186e-07
4.58269e-07
5.04346e-07
4.35866e-07
4.978e-07
5.06788e-07
4.74351e-07
4.71703e-07
5.20592e-07
5.25946e-07
5.36885e-07
5.38193e-07
5.42877e-07
5.43991e-07
5.35946e-07
5.39675e-07
5.27289e-07
5.2344e-07
5.04019e-07
5.03961e-07
4.93748e-07
4.7666e-07
4.39731e-07
7.19957e-07
4.79246e-06
2.74503e-05
0.000128934
0.000344167
0.000542008
0.000713022
0.000699648
0.000492392
5.74504e-05
5.76257e-05
0.000494726
0.000704864
0.000722302
0.000554015
0.000354082
0.000137382
3.01689e-05
5.31088e-06
7.19002e-07
3.68055e-07
3.79055e-07
3.75009e-07
4.73061e-07
4.45577e-07
3.54542e-07
3.78533e-07
4.64705e-07
4.58456e-07
4.1408e-07
5.04127e-07
4.854e-07
4.49857e-07
5.12283e-07
5.38948e-07
5.2669e-07
5.52773e-07
5.338e-07
5.71021e-07
5.41586e-07
5.81851e-07
5.48351e-07
5.77312e-07
5.47231e-07
5.57363e-07
5.28779e-07
5.33948e-07
5.20023e-07
5.08511e-07
5.34107e-07
1.06195e-06
5.48799e-06
3.12958e-05
0.000138764
0.000354861
0.000554511
0.000722401
0.000704738
0.000494653
5.7617e-05
5.77991e-05
0.000497171
0.000709528
0.00072984
0.00056547
0.000364342
0.000147595
3.43704e-05
5.9951e-06
8.06817e-07
3.6931e-07
3.59913e-07
3.71423e-07
3.25777e-07
3.51029e-07
4.36966e-07
4.46311e-07
4.23239e-07
4.35084e-07
4.84045e-07
4.13656e-07
4.77458e-07
4.98695e-07
4.56738e-07
4.54903e-07
5.1135e-07
5.26617e-07
5.46437e-07
5.47038e-07
5.57529e-07
5.65741e-07
5.65961e-07
5.72975e-07
5.66131e-07
5.64808e-07
5.47721e-07
5.48376e-07
5.39072e-07
5.20632e-07
4.80589e-07
1.01617e-06
5.76683e-06
3.36117e-05
0.000148073
0.000365164
0.000566562
0.00073046
0.000709617
0.000496847
5.77784e-05
5.79511e-05
0.000499088
0.000714417
0.000737856
0.000577283
0.000374109
0.000155923
3.64458e-05
6.3357e-06
8.69975e-07
3.43067e-07
3.50943e-07
3.47705e-07
4.38903e-07
4.16617e-07
3.33375e-07
3.53293e-07
4.31959e-07
4.30672e-07
3.84833e-07
4.85595e-07
4.61286e-07
4.23175e-07
5.06464e-07
5.43802e-07
5.24717e-07
5.51487e-07
5.37648e-07
5.89226e-07
5.6921e-07
6.16648e-07
5.87169e-07
6.28436e-07
6.00392e-07
6.19563e-07
5.91271e-07
5.99535e-07
5.8573e-07
5.73642e-07
6.05358e-07
1.56647e-06
6.59863e-06
3.75367e-05
0.000157935
0.000375327
0.000578141
0.000738092
0.000714259
0.00049894
5.79335e-05
5.81118e-05
0.000501453
0.000718666
0.000744501
0.000587678
0.000383672
0.000165855
4.05773e-05
7.15856e-06
9.84633e-07
3.41031e-07
3.29501e-07
3.41436e-07
2.993e-07
3.19403e-07
3.95564e-07
4.13162e-07
3.90002e-07
4.01019e-07
4.52264e-07
3.79641e-07
4.44747e-07
4.81123e-07
4.26288e-07
4.24216e-07
4.89914e-07
5.1651e-07
5.50905e-07
5.52361e-07
5.70588e-07
5.90034e-07
6.06485e-07
6.22427e-07
6.27166e-07
6.35434e-07
6.24398e-07
6.2991e-07
6.22666e-07
6.03151e-07
5.59195e-07
1.62469e-06
6.89574e-06
4.02038e-05
0.000167284
0.000385096
0.000589285
0.000745375
0.000718711
0.000500958
5.80835e-05
5.82614e-05
0.000503175
0.000723144
0.000751854
0.000598578
0.000392862
0.000174031
4.30379e-05
7.50078e-06
1.04637e-06
3.1107e-07
3.15229e-07
3.13377e-07
3.93482e-07
3.77652e-07
3.03898e-07
3.17463e-07
3.8808e-07
3.89925e-07
3.44681e-07
4.5357e-07
4.23109e-07
3.81946e-07
4.86018e-07
5.37925e-07
5.09007e-07
5.3309e-07
5.23242e-07
5.94967e-07
5.94964e-07
6.5544e-07
6.34728e-07
7.04033e-07
6.84227e-07
7.30825e-07
7.07928e-07
7.29387e-07
7.17874e-07
7.12558e-07
7.52882e-07
2.27744e-06
7.85564e-06
4.42194e-05
0.000177157
0.000394799
0.000600001
0.000752299
0.000722936
0.000502888
5.82277e-05
5.84047e-05
0.000505485
0.00072703
0.000757719
0.000608015
0.000401721
0.000183576
4.70519e-05
8.4454e-06
1.17814e-06
3.05768e-07
2.91926e-07
3.03321e-07
2.65473e-07
2.78832e-07
3.45102e-07
3.71043e-07
3.46362e-07
3.56172e-07
4.07401e-07
3.33646e-07
3.97033e-07
4.49043e-07
3.80807e-07
3.75831e-07
4.43904e-07
4.87845e-07
5.39582e-07
5.38965e-07
5.5913e-07
6.00696e-07
6.47964e-07
6.87175e-07
7.12435e-07
7.5322e-07
7.66551e-07
7.90846e-07
7.95471e-07
7.81777e-07
7.32406e-07
2.42496e-06
8.17307e-06
4.71908e-05
0.000186516
0.000404065
0.000610282
0.000758944
0.000727003
0.000504727
5.83666e-05
5.85587e-05
0.000507023
0.000731163
0.000764525
0.000618024
0.000410347
0.000191454
4.97779e-05
8.79147e-06
1.22593e-06
2.73618e-07
2.73825e-07
2.7286e-07
3.40807e-07
3.32414e-07
2.6648e-07
2.72585e-07
3.34645e-07
3.3741e-07
2.95743e-07
4.05245e-07
3.70177e-07
3.26589e-07
4.4127e-07
5.12342e-07
4.72892e-07
4.72503e-07
4.6681e-07
5.62418e-07
5.99974e-07
6.59928e-07
6.50963e-07
7.71508e-07
7.91509e-07
9.15623e-07
9.33082e-07
1.02628e-06
1.04153e-06
1.08774e-06
1.15674e-06
2.33523e-06
9.25616e-06
5.13068e-05
0.000196394
0.000413365
0.000620235
0.000765277
0.000730849
0.000506496
5.84999e-05
5.86902e-05
0.000509243
0.000734734
0.000769677
0.000626551
0.000418484
0.000200489
5.3656e-05
9.79166e-06
1.35339e-06
2.66278e-07
2.4971e-07
2.60283e-07
2.27019e-07
2.33421e-07
2.89674e-07
3.22793e-07
2.95642e-07
3.03808e-07
3.50871e-07
2.80039e-07
3.35123e-07
4.0068e-07
3.2278e-07
3.10544e-07
3.7592e-07
4.38623e-07
4.9457e-07
4.80015e-07
4.98399e-07
5.6826e-07
6.45121e-07
7.0454e-07
7.42245e-07
8.67637e-07
9.86143e-07
1.10852e-06
1.27181e-06
1.33727e-06
1.22661e-06
2.54589e-06
9.59454e-06
5.45581e-05
0.000205763
0.000422181
0.000629728
0.000771381
0.000734567
0.000508158
5.86278e-05
5.88399e-05
0.000510689
0.000738529
0.00077603
0.000635795
0.000426518
0.000207925
5.65365e-05
1.0231e-05
1.38853e-06
2.33855e-07
2.30971e-07
2.29932e-07
2.86042e-07
2.85929e-07
2.25039e-07
2.23203e-07
2.76717e-07
2.79214e-07
2.43954e-07
3.44238e-07
3.10241e-07
2.64572e-07
3.72887e-07
4.64108e-07
4.07881e-07
3.75062e-07
3.75545e-07
4.73381e-07
5.26168e-07
5.58645e-07
5.63813e-07
7.01618e-07
8.10349e-07
9.75003e-07
1.10192e-06
1.39193e-06
1.59627e-06
1.94402e-06
2.51608e-06
2.45693e-06
1.07995e-05
5.87895e-05
0.000215659
0.000431129
0.000638979
0.000777213
0.000738073
0.00050976
5.87503e-05
5.8962e-05
0.000512805
0.000741812
0.000780539
0.000643564
0.000433921
0.000216312
6.02387e-05
1.12091e-05
1.48198e-06
2.25495e-07
2.05945e-07
2.16571e-07
1.88137e-07
1.88088e-07
2.37168e-07
2.72055e-07
2.43865e-07
2.49458e-07
2.88507e-07
2.25291e-07
2.68058e-07
3.38424e-07
2.62755e-07
2.4128e-07
2.98362e-07
3.7218e-07
4.13552e-07
3.85057e-07
3.96239e-07
4.58042e-07
5.29743e-07
5.59298e-07
5.86684e-07
7.39808e-07
9.17991e-07
1.10115e-06
1.4992e-06
3.29794e-06
6.07345e-06
2.71826e-06
1.11588e-05
6.23193e-05
0.000225109
0.000439594
0.00064775
0.000782857
0.00074147
0.000511253
5.88672e-05
5.91082e-05
0.000514174