/*--------------------------------*- C++ -*----------------------------------*\
| =========                 |                                                 |
| \\      /  F ield         | OpenFOAM: The Open Source CFD Toolbox           |
|  \\    /   O peration     | Version:  2.1.0                                 |
|   \\  /    A nd           | Web:      www.OpenFOAM.org                      |
|    \\/     M anipulation  |                                                 |
\*---------------------------------------------------------------------------*/
FoamFile
{
    version     2.0;
    format      ascii;
    class       volVectorField;
    location    "5000";
    object      U;
}
// * * * * * * * * * * * * * * * * * * * * * * * * * * * * * * * * * * * * * //

dimensions      [0 1 -1 0 0 0 0];

internalField   nonuniform List<vector> 
15000
(
(-27.3266 0.178758 -1.08149e-21)
(-29.9 0.244947 9.53626e-22)
(-30.1549 0.069409 -8.57346e-23)
(-30.1553 0.177593 -1.23841e-24)
(-30.1796 0.140108 -6.8814e-25)
(-30.1682 0.140133 9.65272e-22)
(-30.166 0.13016 9.3589e-22)
(-30.1603 0.123657 -1.64328e-21)
(-30.1557 0.116259 -5.07182e-22)
(-30.151 0.109245 7.71961e-22)
(-30.1468 0.102218 -1.52522e-21)
(-30.1432 0.0953095 4.46289e-22)
(-30.1394 0.0883666 1.55545e-21)
(-30.1365 0.0813501 -4.2901e-22)
(-30.1334 0.0742153 -4.01855e-22)
(-30.1314 0.0674933 1.5739e-22)
(-30.1289 0.0606129 2.03734e-23)
(-30.1277 0.0540381 -1.30788e-22)
(-30.1256 0.0469635 -8.33743e-24)
(-30.1248 0.0405846 -1.23022e-24)
(-30.1234 0.0333841 1.17959e-22)
(-30.1229 0.0268087 9.62705e-23)
(-30.1215 0.0193681 -8.23899e-25)
(-30.1215 0.0129507 -8.74362e-23)
(-30.1214 0.00490094 2.0438e-23)
(-30.1213 -0.00219032 4.03216e-24)
(-30.1216 -0.0103235 8.50987e-23)
(-30.1216 -0.0172388 -5.53353e-23)
(-30.1223 -0.0248665 -3.50876e-24)
(-30.1228 -0.031553 1.2814e-22)
(-30.1242 -0.038902 -1.70736e-22)
(-30.125 -0.0456547 -1.63568e-22)
(-30.1268 -0.0528177 3.41864e-22)
(-30.1283 -0.0596367 -4.46047e-22)
(-30.1305 -0.0667007 -1.22627e-22)
(-30.1326 -0.073617 -7.08854e-23)
(-30.1354 -0.0806783 4.61631e-23)
(-30.1382 -0.0877066 1.18665e-21)
(-30.1417 -0.0948366 1.14011e-21)
(-30.1453 -0.101999 -1.6369e-21)
(-30.1497 -0.109254 -1.9735e-21)
(-30.1547 -0.116447 1.13102e-21)
(-30.1601 -0.12395 -1.07358e-22)
(-30.1665 -0.130471 6.45997e-23)
(-30.1693 -0.140318 9.81848e-22)
(-30.1791 -0.140347 0)
(-30.1556 -0.177706 -1.22694e-24)
(-30.1542 -0.0695518 4.44717e-22)
(-29.8996 -0.24496 -5.93301e-21)
(-27.3266 -0.178766 6.37035e-21)
(-25.3305 0.0608049 2.72479e-24)
(-29.731 0.264807 8.09306e-25)
(-30.2669 -0.0382067 6.8877e-22)
(-30.3063 0.156427 -4.16226e-23)
(-30.2938 0.0798811 -2.97117e-22)
(-30.2908 0.0992388 -9.90595e-23)
(-30.2817 0.0895544 -1.64298e-24)
(-30.2714 0.087868 7.53656e-23)
(-30.2638 0.0836576 -6.06031e-23)
(-30.2579 0.0799211 -1.52678e-23)
(-30.2522 0.0759611 5.71181e-23)
(-30.2475 0.071534 2.67122e-24)
(-30.2463 0.0675286 6.39342e-23)
(-30.2469 0.0628026 -5.35832e-23)
(-30.2412 0.0588541 3.5544e-23)
(-30.2311 0.0534614 2.22936e-23)
(-30.2258 0.0490894 -5.65573e-23)
(-30.2243 0.0430812 2.2401e-23)
(-30.2205 0.0386551 1.00627e-23)
(-30.2155 0.0319738 -1.58803e-23)
(-30.2158 0.0273675 -1.47697e-23)
(-30.2148 0.0201928 -1.53925e-24)
(-30.2088 0.0154364 -1.56571e-24)
(-30.2099 0.00741592 -3.19976e-24)
(-30.216 0.00262527 5.56719e-24)
(-30.2169 -0.00543675 -2.69123e-25)
(-30.2192 -0.0101054 1.85151e-24)
(-30.2189 -0.0176523 2.52945e-24)
(-30.2195 -0.0222565 -7.29123e-25)
(-30.222 -0.0292246 -9.04339e-25)
(-30.2257 -0.0337454 4.18298e-24)
(-30.2285 -0.0399737 -1.96643e-23)
(-30.2321 -0.0444173 5.87417e-24)
(-30.2354 -0.0500108 -3.15102e-23)
(-30.2395 -0.0543579 4.11118e-24)
(-30.2437 -0.0593844 8.26216e-23)
(-30.2482 -0.063571 -2.26766e-24)
(-30.2531 -0.0681007 1.04829e-22)
(-30.2583 -0.0720741 -1.03209e-23)
(-30.2637 -0.0761283 -2.3356e-22)
(-30.2678 -0.079899 9.28428e-24)
(-30.2712 -0.0834775 2.7262e-22)
(-30.2755 -0.0874451 1.5612e-22)
(-30.2816 -0.0893215 -2.02897e-22)
(-30.2888 -0.0987893 -1.68296e-22)
(-30.292 -0.0797985 -3.13266e-22)
(-30.3048 -0.155984 -6.73506e-23)
(-30.2662 0.0380062 6.43334e-22)
(-29.7297 -0.264434 -3.54023e-21)
(-25.3309 -0.0609162 1.27504e-23)
(-23.5881 -0.058089 -3.27807e-21)
(-29.2022 0.322073 2.70393e-23)
(-30.2587 -0.0906672 -2.96678e-22)
(-30.3783 0.187111 7.92753e-23)
(-30.3766 0.0574535 3.18944e-22)
(-30.3731 0.104716 -4.89744e-23)
(-30.3685 0.0837855 -2.97909e-23)
(-30.3673 0.0851647 -6.3202e-25)
(-30.3636 0.0803041 -1.93663e-23)
(-30.3589 0.0767703 -1.07173e-23)
(-30.3544 0.0725613 1.63685e-23)
(-30.3496 0.0688165 6.92779e-24)
(-30.3419 0.0641919 7.15505e-25)
(-30.3323 0.0603091 3.28494e-24)
(-30.3293 0.0553452 4.42936e-24)
(-30.3316 0.0513614 2.20871e-23)
(-30.3302 0.0458907 -2.67064e-24)
(-30.3252 0.0418745 -1.62122e-23)
(-30.3228 0.0358768 3.52356e-24)
(-30.3229 0.0318115 1.69787e-24)
(-30.3181 0.0252471 -3.7087e-25)
(-30.315 0.021133 -2.99048e-24)
(-30.3182 0.0140226 -1.79425e-25)
(-30.315 0.00976752 1.75173e-25)
(-30.3077 0.00211762 3.3035e-25)
(-30.3067 -0.00224351 -6.86437e-25)
(-30.3054 -0.00988108 4.07871e-25)
(-30.3078 -0.0141536 -2.14256e-25)
(-30.31 -0.0211755 -2.36096e-24)
(-30.3112 -0.0254367 2.78786e-24)
(-30.312 -0.0318013 -2.86004e-24)
(-30.3144 -0.0360729 8.97322e-24)
(-30.3167 -0.0418283 1.53685e-23)
(-30.3199 -0.0460944 -1.18185e-23)
(-30.3228 -0.0513068 3.75315e-24)
(-30.3264 -0.0555206 -1.05604e-23)
(-30.33 -0.0602743 -1.00926e-23)
(-30.3338 -0.0643713 7.81334e-25)
(-30.3378 -0.0687595 -3.43501e-24)
(-30.3423 -0.0726806 -9.46195e-24)
(-30.3484 -0.076777 1.10814e-23)
(-30.3557 -0.0803293 -1.23528e-23)
(-30.3626 -0.0853138 -7.86284e-24)
(-30.3679 -0.0836463 4.86184e-23)
(-30.3742 -0.105051 1.47809e-23)
(-30.3779 -0.0572395 1.22525e-22)
(-30.3788 -0.187315 -1.45821e-22)
(-30.2583 0.0907851 -3.44885e-22)
(-29.2023 -0.322256 0)
(-23.5897 0.058099 1.62614e-24)
(-22.2227 -0.121577 -2.55881e-21)
(-28.5909 0.322978 1.97811e-21)
(-30.173 -0.106385 -5.1906e-25)
(-30.4202 0.206406 6.23995e-23)
(-30.4252 0.0342135 -2.86059e-22)
(-30.4251 0.113996 -1.54749e-23)
(-30.4172 0.0744154 1.51805e-22)
(-30.409 0.084572 4.09653e-26)
(-30.4027 0.0766892 1.18149e-23)
(-30.398 0.0738939 -1.2175e-25)
(-30.3935 0.0701078 -1.7743e-23)
(-30.3896 0.0658851 5.63254e-25)
(-30.3889 0.0622142 -1.64605e-23)
(-30.3904 0.0576412 -1.6897e-24)
(-30.3861 0.0538762 1.70143e-23)
(-30.377 0.0488287 -9.46107e-25)
(-30.372 0.0450107 4.02493e-24)
(-30.371 0.0394885 4.17033e-25)
(-30.3679 0.0356117 6.94955e-25)
(-30.3632 0.0295802 8.77437e-25)
(-30.3637 0.0256489 7.49873e-25)
(-30.3633 0.0190202 1.55174e-24)
(-30.3576 0.0150779 -3.19418e-24)
(-30.3588 0.00783324 -5.81657e-25)
(-30.3648 0.00375102 3.12467e-24)
(-30.3658 -0.00383429 1.01217e-24)
(-30.368 -0.00799475 -1.92983e-24)
(-30.3676 -0.0151045 1.51632e-24)
(-30.3682 -0.0191985 4.71231e-24)
(-30.3705 -0.0256759 3.94122e-24)
(-30.3738 -0.0297659 1.29166e-24)
(-30.3762 -0.0356134 -3.4392e-24)
(-30.3794 -0.0397115 -1.43343e-24)
(-30.3821 -0.0449844 3.32281e-24)
(-30.3857 -0.0490596 -1.36594e-24)
(-30.3891 -0.0538352 4.11117e-24)
(-30.3929 -0.0578463 5.15557e-24)
(-30.397 -0.0622049 -1.84602e-23)
(-30.4012 -0.0660931 -7.12292e-24)
(-30.4055 -0.070125 -8.16965e-25)
(-30.4084 -0.0740032 2.99919e-24)
(-30.4106 -0.0767244 1.24609e-23)
(-30.4139 -0.0845245 2.85246e-25)
(-30.4182 -0.0745313 5.18759e-24)
(-30.4243 -0.113779 -1.4399e-22)
(-30.4246 -0.0345285 -1.06301e-23)
(-30.42 -0.206124 1.64003e-22)
(-30.1726 0.10614 -6.32006e-24)
(-28.5902 -0.322803 1.66682e-22)
(-22.2236 0.121553 -9.63127e-22)
(-21.2246 -0.137569 -3.38667e-24)
(-27.9433 0.289422 0)
(-30.0153 -0.0986579 -1.88273e-22)
(-30.4674 0.207501 -1.20404e-22)
(-30.4932 0.0183663 1.60336e-22)
(-30.4905 0.121135 5.68322e-23)
(-30.4849 0.0633591 -4.55807e-23)
(-30.4843 0.084841 1.26734e-24)
(-30.4807 0.0713494 -1.02722e-24)
(-30.4761 0.0713555 8.22042e-24)
(-30.4714 0.0664962 -1.85275e-23)
(-30.4662 0.0632428 -9.2216e-24)
(-30.4589 0.0589194 2.69463e-23)
(-30.4494 0.0553654 1.54539e-23)
(-30.4459 0.0507222 4.65089e-24)
(-30.4479 0.0471232 -6.17704e-24)
(-30.4468 0.0420176 -1.1701e-23)
(-30.4419 0.0384322 -1.22366e-23)
(-30.4393 0.0327969 -8.50449e-24)
(-30.4395 0.0292148 7.12345e-24)
(-30.4349 0.023063 5.2931e-24)
(-30.4317 0.019422 1.02843e-24)
(-30.4347 0.0127711 2.1023e-24)
(-30.4318 0.00905224 -1.67375e-24)
(-30.4247 0.00189124 1.00959e-24)
(-30.4237 -0.00194196 1.5502e-24)
(-30.4224 -0.00907326 1.07961e-24)
(-30.4247 -0.0128522 2.59329e-24)
(-30.4268 -0.0194001 -3.50324e-24)
(-30.4279 -0.0231929 5.54603e-24)
(-30.4287 -0.0291174 -1.88128e-25)
(-30.4311 -0.032964 -7.31786e-25)
(-30.4333 -0.0383004 6.33662e-24)
(-30.4365 -0.0421754 -7.87867e-24)
(-30.4393 -0.0470009 -4.06221e-24)
(-30.4429 -0.0508523 -7.15861e-25)
(-30.4465 -0.0552465 1.62916e-25)
(-30.4503 -0.059044 -6.29171e-25)
(-30.4544 -0.063077 6.29131e-25)
(-30.4589 -0.0665963 2.01783e-23)
(-30.4651 -0.0712734 -3.10211e-24)
(-30.4722 -0.0714048 -6.99692e-23)
(-30.4793 -0.084921 -5.44255e-24)
(-30.484 -0.0633301 7.64062e-23)
(-30.491 -0.12132 2.82498e-23)
(-30.4938 -0.0182073 -1.18696e-24)
(-30.4671 -0.207702 -3.88826e-23)
(-30.0148 0.0986939 -5.96508e-24)
(-27.9429 -0.28944 -2.42211e-21)
(-21.2254 0.137557 2.49514e-21)
(-20.5043 -0.128727 4.83856e-22)
(-27.3261 0.243454 -7.34995e-22)
(-29.7767 -0.0819307 -4.1974e-24)
(-30.4887 0.196608 -2.27616e-24)
(-30.5467 0.00970838 4.4186e-25)
(-30.548 0.124501 -3.44062e-23)
(-30.54 0.0525685 -3.3625e-23)
(-30.5322 0.0853797 1.01893e-24)
(-30.525 0.0651696 2.24237e-23)
(-30.5203 0.0687008 1.46776e-24)
(-30.5157 0.0628387 1.76836e-24)
(-30.5122 0.0596778 -1.52889e-23)
(-30.511 0.0562446 0)
(-30.5125 0.0519489 -1.56002e-25)
(-30.5088 0.0486526 1.49582e-23)
(-30.4999 0.0439366 2.55738e-24)
(-30.4947 0.0405789 -1.1009e-23)
(-30.4936 0.035471 2.63001e-24)
(-30.4908 0.0320641 7.63956e-25)
(-30.4861 0.0265024 -1.61554e-24)
(-30.4864 0.0231127 -2.37187e-24)
(-30.4861 0.0169585 -3.61767e-24)
(-30.4806 0.0136395 1.35458e-25)
(-30.4815 0.00692354 -1.47574e-24)
(-30.4874 0.00350351 -2.76825e-24)
(-30.4883 -0.00349214 -1.43639e-24)
(-30.4904 -0.00700663 -1.65321e-24)
(-30.49 -0.0135529 1.48691e-25)
(-30.4906 -0.0170767 1.12225e-23)
(-30.4929 -0.0230272 -1.00271e-24)
(-30.4961 -0.0266123 -1.43529e-23)
(-30.4984 -0.0319728 9.27064e-24)
(-30.5015 -0.0356218 1.87827e-24)
(-30.5043 -0.0404453 -1.39258e-23)
(-30.5078 -0.0441176 -5.1724e-24)
(-30.5112 -0.048497 7.21055e-24)
(-30.515 -0.0521179 4.98443e-24)
(-30.519 -0.0561219 -1.26704e-23)
(-30.5232 -0.059847 1.29362e-24)
(-30.5274 -0.062741 1.16519e-23)
(-30.5305 -0.0688335 -4.89558e-25)
(-30.5328 -0.0651079 -1.85111e-23)
(-30.5366 -0.0854346 -1.86829e-24)
(-30.5406 -0.0525904 -1.70023e-24)
(-30.5471 -0.124394 7.98832e-24)
(-30.5461 -0.00990478 -5.03731e-23)
(-30.4884 -0.196417 -1.68154e-24)
(-29.7759 0.081816 2.49642e-22)
(-27.3254 -0.243428 -1.91316e-23)
(-20.5046 0.128721 -1.79447e-22)
(-20.0057 -0.110036 2.60718e-22)
(-26.7604 0.196845 -2.4951e-22)
(-29.4712 -0.062593 -1.53278e-22)
(-30.4829 0.17942 5.94592e-24)
(-30.5996 0.00847411 3.31567e-23)
(-30.5994 0.123674 -8.34967e-24)
(-30.5938 0.0444668 -4.56403e-23)
(-30.5932 0.0859631 -2.47557e-24)
(-30.5893 0.0589785 1.18662e-24)
(-30.5852 0.0674106 0)
(-30.5803 0.0586529 2.40944e-24)
(-30.5754 0.0576227 -3.60613e-25)
(-30.5686 0.0529205 1.11186e-23)
(-30.5591 0.0499683 9.19607e-24)
(-30.5552 0.0456596 -8.83806e-24)
(-30.557 0.0424643 -6.07212e-24)
(-30.5562 0.0377628 -1.20121e-23)
(-30.5514 0.0346266 1.95414e-24)
(-30.5487 0.0294185 1.11124e-23)
(-30.5491 0.0263338 -3.37947e-24)
(-30.5447 0.020627 -8.21717e-25)
(-30.5414 0.0175297 5.49418e-24)
(-30.5444 0.0113691 1.99164e-24)
(-30.5417 0.0082201 -7.06975e-25)
(-30.5349 0.00160637 -2.84832e-24)
(-30.5339 -0.00164066 -3.76868e-25)
(-30.5327 -0.00821222 -1.85101e-24)
(-30.535 -0.0114478 3.56854e-24)
(-30.5369 -0.0174743 -4.43901e-24)
(-30.5379 -0.0207667 -4.45573e-24)
(-30.5387 -0.0262087 -2.41041e-24)
(-30.5411 -0.0295961 -5.99062e-24)
(-30.5433 -0.0344801 -2.24752e-24)
(-30.5464 -0.0379429 8.37889e-24)
(-30.5492 -0.0423318 8.50593e-24)
(-30.5527 -0.0458202 4.60416e-26)
(-30.5563 -0.0498403 -1.00382e-23)
(-30.56 -0.0530963 1.31551e-23)
(-30.5641 -0.0574617 4.9446e-24)
(-30.5685 -0.0587957 -3.41746e-24)
(-30.5749 -0.0673161 -3.24467e-24)
(-30.5816 -0.0590637 -2.63519e-23)
(-30.5888 -0.0859454 1.24906e-24)
(-30.5932 -0.0445045 -4.68543e-23)
(-30.5999 -0.123717 -1.07915e-24)
(-30.6001 -0.00850085 3.36911e-23)
(-30.4824 -0.179455 8.79947e-25)
(-29.4709 0.0626128 -3.07791e-25)
(-26.7604 -0.196868 -2.72665e-25)
(-20.0058 0.110037 -6.29478e-25)
(-19.6644 -0.0897227 1.12802e-24)
(-26.273 0.155839 5.06664e-25)
(-29.1198 -0.0442979 1.76638e-22)
(-30.4411 0.160353 8.55225e-24)
(-30.6414 0.011455 -9.92848e-24)
(-30.648 0.120445 2.74479e-24)
(-30.6409 0.0391623 4.86995e-23)
(-30.6332 0.0860959 1.40403e-24)
(-30.6259 0.0539456 -5.19509e-23)
(-30.6215 0.0662422 -3.76637e-25)
(-30.6168 0.0555504 3.76294e-24)
(-30.6132 0.0553239 8.15135e-24)
(-30.6115 0.0509907 -2.09047e-24)
(-30.6129 0.0474136 1.44651e-24)
(-30.61 0.0443602 1.47946e-24)
(-30.6014 0.0399403 -9.88127e-25)
(-30.5961 0.0369866 2.68069e-25)
(-30.5949 0.0321883 -6.43966e-24)
(-30.5924 0.0292052 -2.85202e-25)
(-30.5878 0.0239945 2.94265e-24)
(-30.5879 0.021065 -6.05622e-24)
(-30.5879 0.0152843 -5.08787e-24)
(-30.5824 0.0124759 4.60284e-24)
(-30.5832 0.00616755 2.01012e-24)
(-30.5889 0.00328715 3.89087e-25)
(-30.5897 -0.00324901 -5.7995e-25)
(-30.5918 -0.00624928 -3.28394e-25)
(-30.5913 -0.0123426 -2.21157e-24)
(-30.592 -0.0154101 9.12991e-25)
(-30.5942 -0.0209334 7.53433e-24)
(-30.5973 -0.0241076 1.08409e-25)
(-30.5995 -0.0290687 -3.6702e-25)
(-30.6025 -0.0323452 1.2168e-25)
(-30.6051 -0.0368013 6.28413e-24)
(-30.6086 -0.0401387 2.29805e-24)
(-30.6118 -0.0441343 -7.83014e-24)
(-30.6155 -0.0476283 4.21166e-24)
(-30.6194 -0.0507787 -2.88192e-25)
(-30.6236 -0.0555293 -3.26027e-24)
(-30.6277 -0.0553936 -5.86898e-25)
(-30.631 -0.0663715 -1.00482e-24)
(-30.633 -0.0538464 3.32428e-23)
(-30.637 -0.0861457 -3.51453e-24)
(-30.6412 -0.0391359 -6.07582e-23)
(-30.6471 -0.120381 9.37774e-25)
(-30.6408 -0.0115033 1.38081e-23)
(-30.4403 -0.160268 5.15789e-24)
(-29.119 0.0442539 -6.23724e-23)
(-26.2725 -0.155835 9.69302e-24)
(-19.6642 0.0897232 2.68678e-22)
(-19.4262 -0.0716794 -4.22888e-22)
(-25.8586 0.122829 7.84707e-22)
(-28.7547 -0.0292013 7.45899e-24)
(-30.3599 0.140843 1.40416e-23)
(-30.6823 0.0180162 -6.01686e-25)
(-30.6924 0.114759 -9.83137e-24)
(-30.6877 0.0366855 2.55764e-23)
(-30.6867 0.0856546 -1.0539e-23)
(-30.6829 0.0497073 -1.26225e-23)
(-30.6789 0.0660874 2.29011e-24)
(-30.6741 0.0520712 -1.24368e-23)
(-30.6694 0.0546711 -3.13471e-24)
(-30.663 0.0482602 5.63569e-24)
(-30.6538 0.0465166 1.47699e-24)
(-30.6495 0.0420488 2.95299e-24)
(-30.6511 0.0392532 3.34188e-24)
(-30.6505 0.0347939 -3.80718e-25)
(-30.646 0.0319586 8.9822e-25)
(-30.6431 0.0270449 2.50883e-24)
(-30.6437 0.0243071 -2.03126e-24)
(-30.6395 0.0188945 1.46924e-25)
(-30.6362 0.0161975 1.11195e-24)
(-30.6391 0.0103627 -1.68226e-24)
(-30.6367 0.00762997 9.10867e-25)
(-30.6301 0.00139836 1.10855e-24)
(-30.6292 -0.00142472 1.85761e-24)
(-30.628 -0.0076012 -1.44583e-24)
(-30.6302 -0.0104472 6.56594e-26)
(-30.6321 -0.0161067 3.81213e-24)
(-30.633 -0.0190491 -5.48114e-24)
(-30.6338 -0.02415 2.25976e-24)
(-30.6362 -0.027227 3.58251e-24)
(-30.6383 -0.0317904 -8.71956e-25)
(-30.6413 -0.034975 -1.73005e-24)
(-30.644 -0.0391036 -2.13766e-24)
(-30.6475 -0.0422076 2.98457e-24)
(-30.6509 -0.0463577 5.02061e-25)
(-30.6546 -0.0484633 2.53595e-24)
(-30.6587 -0.0544569 -8.93132e-25)
(-30.6631 -0.0522599 -1.0645e-23)
(-30.6694 -0.065936 -9.4632e-25)
(-30.6758 -0.0498243 -2.78573e-23)
(-30.6828 -0.0855791 -5.5151e-24)
(-30.6873 -0.0367699 2.51032e-23)
(-30.6929 -0.114734 -8.91268e-24)
(-30.6825 -0.0180407 3.2459e-26)
(-30.3599 -0.140861 8.53567e-24)
(-28.7547 0.0291849 8.6607e-25)
(-25.8588 -0.122831 3.2324e-22)
(-19.426 0.071677 8.41195e-23)
(-19.2568 -0.0569352 5.57697e-23)
(-25.5164 0.09724 -1.493e-22)
(-28.4 -0.0178869 1.06348e-22)
(-30.2347 0.123026 -8.70823e-25)
(-30.7084 0.0251165 -2.99358e-25)
(-30.7352 0.108357 1.1037e-23)
(-30.7296 0.0361532 -4.19143e-24)
(-30.7215 0.0842619 1.686e-24)
(-30.7145 0.0469951 6.54819e-24)
(-30.7101 0.0652843 0)
(-30.7055 0.0499497 3.01014e-25)
(-30.7018 0.0532663 8.36012e-25)
(-30.6997 0.0469897 -1.17644e-24)
(-30.7008 0.0447814 -3.14808e-24)
(-30.6987 0.0413364 -4.1345e-24)
(-30.6904 0.0373713 -4.76718e-24)
(-30.685 0.0345813 3.38507e-24)
(-30.6837 0.0299854 4.76006e-24)
(-30.6815 0.0273124 -4.32073e-24)
(-30.6769 0.0222935 -2.89989e-25)
(-30.6769 0.0196928 -9.85246e-25)
(-30.6771 0.014151 1.56974e-24)
(-30.6717 0.0116904 2.20903e-24)
(-30.6724 0.00564591 1.17882e-24)
(-30.6779 0.00314338 1.1481e-24)
(-30.6786 -0.00309464 -2.60428e-25)
(-30.6806 -0.00573808 -3.74981e-25)
(-30.6801 -0.0115319 3.38439e-24)
(-30.6808 -0.0142928 -1.4243e-24)
(-30.683 -0.0195309 -1.40228e-24)
(-30.6859 -0.022434 1.96944e-24)
(-30.688 -0.0271315 3.3812e-25)
(-30.6909 -0.030176 1.29835e-25)
(-30.6934 -0.0343521 1.36178e-24)
(-30.6968 -0.0376005 -2.61229e-25)
(-30.7 -0.0410612 -2.09788e-24)
(-30.7036 -0.0450518 2.95156e-25)
(-30.7074 -0.0467043 -8.32283e-24)
(-30.7117 -0.0535161 -3.41873e-25)
(-30.7156 -0.0497652 -4.5072e-24)
(-30.7189 -0.0654032 1.03681e-24)
(-30.7209 -0.0468995 2.71187e-23)
(-30.7249 -0.0843175 6.6056e-25)
(-30.7297 -0.0360627 -4.44492e-24)
(-30.7343 -0.108406 -2.49425e-25)
(-30.708 -0.0250498 1.85345e-24)
(-30.2338 -0.123014 -8.81184e-24)
(-28.3991 0.0179078 -6.0352e-23)
(-25.5157 -0.0972413 -3.95253e-22)
(-19.2564 0.0569366 2.58755e-22)
(-19.1321 -0.0453561 -7.77637e-22)
(-25.2332 0.0778248 1.16275e-21)
(-28.0732 -0.00974214 9.42475e-23)
(-30.0704 0.106572 1.67374e-23)
(-30.7296 0.0327002 7.82947e-24)
(-30.7742 0.100893 -4.44664e-25)
(-30.771 0.03706 6.25517e-24)
(-30.7694 0.0823969 -8.45326e-25)
(-30.7659 0.0446831 2.90097e-26)
(-30.7618 0.0651055 8.37304e-25)
(-30.757 0.047244 -1.50933e-25)
(-30.7527 0.0531935 -4.66645e-25)
(-30.7466 0.0446329 1.74812e-24)
(-30.7377 0.0445078 4.51157e-25)
(-30.733 0.0393632 2.40342e-25)
(-30.7343 0.037174 -2.9594e-24)
(-30.7339 0.0326892 1.87689e-24)
(-30.7296 0.0301492 3.13452e-24)
(-30.7266 0.025387 -4.94146e-25)
(-30.7274 0.0229156 -3.06943e-24)
(-30.7234 0.0176759 4.68284e-27)
(-30.7199 0.0152833 -1.17292e-24)
(-30.7229 0.00964607 -6.8389e-26)
(-30.7206 0.00722406 -3.23742e-25)
(-30.7143 0.00124328 -7.23332e-26)
(-30.7134 -0.00127426 2.06949e-25)
(-30.7123 -0.00718221 3.21479e-24)
(-30.7145 -0.00975407 1.67797e-24)
(-30.7162 -0.0151619 -2.4191e-24)
(-30.7171 -0.0178653 5.31286e-25)
(-30.7179 -0.022731 0)
(-30.7202 -0.0255943 -4.64324e-25)
(-30.7223 -0.029968 -8.81732e-25)
(-30.7253 -0.0328841 1.42699e-24)
(-30.7279 -0.0370345 -7.75564e-25)
(-30.7313 -0.0395136 2.3445e-24)
(-30.7348 -0.044353 -7.60487e-25)
(-30.7384 -0.0448679 -1.1032e-23)
(-30.7426 -0.0529609 6.95888e-25)
(-30.7467 -0.0474464 2.15842e-24)
(-30.753 -0.0649829 -3.69755e-25)
(-30.7594 -0.0447945 6.9488e-24)
(-30.766 -0.082347 -1.81563e-24)
(-30.7709 -0.0371827 -1.94411e-24)
(-30.7747 -0.100747 -6.20278e-25)
(-30.7295 -0.0328847 0)
(-30.0705 -0.106539 -9.76467e-24)
(-28.0736 0.00970469 -5.44787e-23)
(-25.2336 -0.0778263 1.27575e-22)
(-19.1319 0.0453549 -3.67809e-22)
(-19.0391 -0.0366703 -1.08628e-22)
(-25.0011 0.0631537 -2.57782e-22)
(-27.7859 -0.00406289 -5.11635e-24)
(-29.8753 0.0923006 -1.54612e-23)
(-30.7278 0.0388774 1.73816e-24)
(-30.8122 0.0941492 -2.41224e-23)
(-30.8091 0.0391293 2.14782e-25)
(-30.8006 0.0796 6.59129e-24)
(-30.7939 0.0439198 -4.07745e-24)
(-30.7894 0.0639863 -6.9184e-25)
(-30.7849 0.0459899 1.59299e-23)
(-30.7812 0.0520883 -6.37758e-25)
(-30.7786 0.0437903 -9.20082e-24)
(-30.7794 0.0432333 1.04964e-24)
(-30.778 0.0389326 8.79903e-25)
(-30.77 0.0356723 5.74661e-26)
(-30.7645 0.0327795 -1.14538e-25)
(-30.7631 0.0284172 9.84866e-25)
(-30.7612 0.0259428 1.21618e-24)
(-30.7566 0.0210474 -1.74638e-25)
(-30.7563 0.0187021 -6.71327e-26)
(-30.7568 0.0133165 5.06976e-25)
(-30.7515 0.0111167 4.43929e-26)
(-30.752 0.00525864 1.36606e-24)
(-30.7573 0.00303726 -8.2656e-25)
(-30.758 -0.00298895 -1.52297e-24)
(-30.7599 -0.00536582 3.33018e-25)
(-30.7594 -0.0109457 -1.01954e-24)
(-30.7601 -0.0134836 -4.18879e-25)
(-30.7622 -0.0185129 7.16396e-25)
(-30.7651 -0.0212324 7.17467e-25)
(-30.7671 -0.025712 -5.95601e-25)
(-30.7699 -0.0286633 6.06955e-25)
(-30.7724 -0.0324965 3.54515e-25)
(-30.7757 -0.0359442 -2.86033e-24)
(-30.7788 -0.0386289 -8.96017e-25)
(-30.7824 -0.0435057 1.99926e-24)
(-30.7862 -0.0435076 -9.49679e-26)
(-30.7905 -0.0523285 6.09564e-25)
(-30.7943 -0.0457935 -1.76283e-24)
(-30.7974 -0.0641016 5.66642e-25)
(-30.7998 -0.0438238 3.09169e-24)
(-30.8035 -0.0796019 -1.01105e-23)
(-30.8089 -0.0391052 -3.85697e-25)
(-30.8113 -0.094132 3.30557e-23)
(-30.7275 -0.0388048 6.77407e-24)
(-29.8742 -0.092291 -6.65085e-25)
(-27.7848 0.00407965 2.74935e-22)
(-25.0002 -0.0631445 -6.03255e-24)
(-19.0387 0.0366695 -8.30792e-23)
(-18.9679 -0.0299111 -5.48639e-22)
(-24.8097 0.0516789 4.48949e-22)
(-27.5325 -0.000529112 -7.31319e-25)
(-29.6614 0.0801802 1.22438e-23)
(-30.7128 0.0430585 -1.4579e-24)
(-30.8458 0.0879865 2.34358e-23)
(-30.8461 0.0405697 -1.24125e-24)
(-30.844 0.0768055 5.44537e-24)
(-30.8407 0.0428052 6.42489e-24)
(-30.8364 0.0631709 -2.30124e-24)
(-30.8318 0.0439059 -2.27826e-24)
(-30.8276 0.0519209 2.21016e-24)
(-30.8218 0.0416887 -1.51367e-24)
(-30.8132 0.0431041 3.61774e-25)
(-30.8082 0.0370554 -6.95477e-24)
(-30.8092 0.0357038 -1.89916e-25)
(-30.8089 0.0309229 6.41752e-24)
(-30.8048 0.0288001 1.68421e-25)
(-30.8016 0.0240472 -2.77486e-24)
(-30.8026 0.0218502 0)
(-30.7987 0.0167064 -1.59386e-24)
(-30.7952 0.0145838 0)
(-30.7981 0.00907552 1.07636e-25)
(-30.796 0.00692185 1.41931e-24)
(-30.7899 0.00112029 -5.11513e-25)
(-30.7891 -0.0011435 -1.04186e-24)
(-30.788 -0.00684682 1.01827e-24)
(-30.7902 -0.0091993 -1.68943e-24)
(-30.7918 -0.0144115 6.30552e-25)
(-30.7926 -0.0169213 5.68781e-25)
(-30.7935 -0.0216196 1.03414e-24)
(-30.7958 -0.0242716 0)
(-30.7978 -0.0285859 -1.33219e-24)
(-30.8008 -0.0311308 2.13021e-25)
(-30.8034 -0.0355431 1.84753e-24)
(-30.8068 -0.0372049 -5.40194e-26)
(-30.8102 -0.0429484 3.71977e-25)
(-30.8139 -0.0419161 1.18226e-24)
(-30.818 -0.0516864 8.64904e-25)
(-30.8221 -0.0441202 -7.06653e-25)
(-30.8283 -0.063035 7.75107e-25)
(-30.8348 -0.0429451 -7.45915e-24)
(-30.8409 -0.0767569 -5.45443e-24)
(-30.8461 -0.0406525 1.86247e-24)
(-30.8463 -0.0880129 8.1648e-25)
(-30.7126 -0.043098 -9.0251e-26)
(-29.6617 -0.0801834 4.32359e-25)
(-27.5331 0.000513874 7.42173e-23)
(-24.8103 -0.051679 -6.32641e-24)
(-18.9677 0.0299119 -6.75434e-23)
(-18.9149 -0.0246226 1.29546e-22)
(-24.6589 0.0425974 -1.16761e-22)
(-27.3163 0.00181065 -9.62827e-23)
(-29.4385 0.0692955 -6.07914e-24)
(-30.6769 0.0464847 -2.14197e-24)
(-30.8775 0.0822202 -9.52427e-24)
(-30.8805 0.0427706 -3.07238e-24)
(-30.8719 0.0734769 3.86824e-24)
(-30.8655 0.0429253 3.83691e-24)
(-30.8609 0.0614422 -2.44435e-24)
(-30.8564 0.0432211 -9.5602e-24)
(-30.8527 0.050624 1.84282e-24)
(-30.8498 0.0410461 6.06983e-25)
(-30.8503 0.0418601 -8.41735e-25)
(-30.8494 0.036715 1.09149e-24)
(-30.8417 0.0342532 -4.11468e-24)
(-30.8362 0.0311014 -8.43409e-25)
(-30.8346 0.0270824 4.08883e-24)
(-30.833 0.0247046 7.22017e-26)
(-30.8284 0.0199571 6.60324e-25)
(-30.8279 0.017826 9.59099e-26)
(-30.8287 0.0125777 -9.22044e-25)
(-30.8235 0.0106089 -6.79145e-25)
(-30.8238 0.00491191 -1.81986e-24)
(-30.829 0.00293571 2.74515e-25)
(-30.8296 -0.00290519 1.45006e-24)
(-30.8314 -0.00505093 -1.05336e-24)
(-30.8309 -0.0104414 1.24171e-24)
(-30.8316 -0.0127908 7.43315e-25)
(-30.8337 -0.0176195 1.56908e-24)
(-30.8365 -0.0202126 -1.03834e-25)
(-30.8384 -0.0244312 -2.10085e-24)
(-30.8411 -0.027409 1.32143e-24)
(-30.8435 -0.030771 5.09862e-25)
(-30.8469 -0.0346002 0)
(-30.8498 -0.0363717 9.23239e-25)
(-30.8535 -0.0421822 -1.27434e-24)
(-30.8573 -0.0407644 -9.0291e-25)
(-30.8614 -0.0508713 -1.87893e-26)
(-30.8652 -0.0430299 1.39134e-24)
(-30.8682 -0.0615739 -5.66121e-25)
(-30.8709 -0.0428112 -7.70711e-25)
(-30.8745 -0.0735146 1.14224e-24)
(-30.8802 -0.0427074 5.41266e-25)
(-30.8767 -0.0822037 -1.45261e-23)
(-30.676 -0.0464398 -3.72519e-25)
(-29.4374 -0.0692902 -6.49141e-24)
(-27.3151 -0.00180177 5.73911e-23)
(-24.6578 -0.0425976 -1.27584e-22)
(-18.9145 0.0246214 1.80243e-22)
(-18.8762 -0.02056 4.36037e-25)
(-24.5326 0.0356847 -6.87503e-26)
(-27.1285 0.00351261 -2.36646e-25)
(-29.2186 0.0602992 -2.64291e-24)
(-30.6164 0.048143 7.19403e-25)
(-30.9039 0.0779957 1.68882e-24)
(-30.9134 0.0443273 3.76051e-25)
(-30.9111 0.0710465 -6.15053e-24)
(-30.908 0.0427335 5.14754e-24)
(-30.9036 0.060613 1.08145e-24)
(-30.8991 0.0419769 -9.33364e-24)
(-30.895 0.0505928 2.22454e-25)
(-30.8897 0.039479 6.60532e-24)
(-30.8812 0.0420602 -3.14728e-25)
(-30.876 0.0351301 -1.56033e-24)
(-30.8767 0.0346657 -3.83085e-25)
(-30.8765 0.0294322 -1.18324e-24)
(-30.8726 0.0278169 -3.32649e-25)
(-30.8694 0.0229309 1.01371e-24)
(-30.8704 0.0210515 -7.67044e-25)
(-30.8667 0.0159159 7.56412e-25)
(-30.8631 0.0140529 0)
(-30.866 0.00861732 -1.07129e-24)
(-30.864 0.00670063 -1.26064e-24)
(-30.8582 0.0010274 6.04428e-25)
(-30.8574 -0.00102109 -1.09968e-24)
(-30.8564 -0.00656749 -2.86607e-25)
(-30.8585 -0.00873693 1.14505e-24)
(-30.86 -0.0138027 4.21638e-25)
(-30.8609 -0.0161375 6.71165e-25)
(-30.8617 -0.0207433 -1.97479e-24)
(-30.864 -0.0231534 1.64327e-24)
(-30.866 -0.0275411 6.38765e-25)
(-30.8689 -0.0296242 -2.10262e-24)
(-30.8715 -0.0344414 3.84342e-25)
(-30.8748 -0.0352887 -2.58693e-24)
(-30.8782 -0.0418241 -2.71574e-25)
(-30.8819 -0.0397064 5.53363e-24)
(-30.8859 -0.0503019 1.71948e-25)
(-30.89 -0.0421746 -4.93424e-24)
(-30.8961 -0.0604239 -5.28838e-25)
(-30.9026 -0.0428522 3.13441e-24)
(-30.9084 -0.0709563 2.18233e-25)
(-30.9135 -0.0443791 1.72703e-24)
(-30.9042 -0.0779764 3.71698e-24)
(-30.6167 -0.0481637 5.08028e-25)
(-29.219 -0.0603193 2.02878e-24)
(-27.1293 -0.00352215 5.66967e-25)
(-24.5334 -0.0356827 2.61007e-25)
(-18.8761 0.0205614 8.72153e-25)
(-18.8481 -0.0173634 3.83267e-23)
(-24.4282 0.0300707 3.21766e-24)
(-26.9712 0.00499132 -4.52429e-23)
(-29.0134 0.0524426 0)
(-30.532 0.0489838 1.2458e-24)
(-30.9267 0.0739621 -2.45063e-24)
(-30.945 0.0462208 8.22398e-25)
(-30.9366 0.0680204 -1.6095e-24)
(-30.9305 0.0434112 2.06818e-25)
(-30.9257 0.0587619 1.59548e-24)
(-30.9214 0.0418905 6.43776e-25)
(-30.9175 0.0492505 -1.3137e-25)
(-30.9144 0.039271 -1.7029e-24)
(-30.9145 0.0408214 1.76407e-24)
(-30.9143 0.035122 3.65592e-24)
(-30.9068 0.0332725 -8.05803e-25)
(-30.9012 0.0298382 -1.23094e-24)
(-30.8994 0.0261545 -1.0256e-24)
(-30.8981 0.0237721 1.67833e-24)
(-30.8936 0.0191718 -8.0803e-26)
(-30.8929 0.0171721 -3.70712e-25)
(-30.894 0.012031 1.18617e-24)
(-30.8888 0.0102286 1.50894e-24)
(-30.889 0.0046469 5.9193e-25)
(-30.894 0.00285354 1.01414e-25)
(-30.8945 -0.00285206 9.61e-26)
(-30.8962 -0.00483019 5.32605e-25)
(-30.8957 -0.0100744 -1.79751e-24)
(-30.8965 -0.0123062 2.49696e-25)
(-30.8985 -0.016953 -8.56694e-25)
(-30.9012 -0.0195226 -4.48014e-25)
(-30.903 -0.0234519 1.47176e-25)
(-30.9057 -0.0265977 -1.24306e-24)
(-30.9081 -0.0294506 5.70657e-25)
(-30.9114 -0.0337273 -3.77834e-26)
(-30.9143 -0.0347498 -2.28022e-24)
(-30.9179 -0.0412123 3.56878e-24)
(-30.9217 -0.0390069 2.6039e-24)
(-30.9257 -0.0495323 -3.72097e-24)
(-30.9296 -0.0417077 -2.43635e-24)
(-30.9324 -0.0589464 4.90497e-25)
(-30.9353 -0.0432976 1.16191e-24)
(-30.9389 -0.0681081 9.45692e-24)
(-30.9445 -0.0461714 1.78185e-24)
(-30.9261 -0.0739824 -9.26884e-24)
(-30.5313 -0.0489502 -2.26015e-25)
(-29.0121 -0.052426 -1.6533e-24)
(-26.9698 -0.00497747 -1.4548e-24)
(-24.4268 -0.030073 -8.71388e-23)
(-18.8477 0.0173628 -1.98152e-24)
(-18.8282 -0.0148101 -1.52048e-23)
(-24.3399 0.025577 7.18984e-23)
(-26.8307 0.00608537 1.86351e-23)
(-28.8244 0.0464635 3.6133e-24)
(-30.4296 0.0484445 -1.97981e-25)
(-30.942 0.0713903 4.61643e-24)
(-30.9744 0.0470814 4.4103e-26)
(-30.9725 0.066177 -1.8532e-24)
(-30.9695 0.0434567 -1.72743e-24)
(-30.9649 0.0579448 -4.7384e-25)
(-30.9606 0.0410793 -2.50116e-24)
(-30.9565 0.0492304 -6.56965e-25)
(-30.9516 0.0379829 -4.36373e-24)
(-30.9434 0.0412053 1.86058e-27)
(-30.9379 0.0336453 3.2621e-24)
(-30.9383 0.0339278 7.63649e-25)
(-30.9382 0.0282243 -1.7388e-24)
(-30.9345 0.0271297 -3.928e-25)
(-30.9312 0.0220154 -1.04967e-24)
(-30.9322 0.0204826 6.90004e-25)
(-30.9288 0.0152738 3.66611e-25)
(-30.9252 0.0136652 2.0346e-25)
(-30.9279 0.00824716 7.52455e-26)
(-30.9261 0.00654109 -8.35847e-25)
(-30.9205 0.000947765 0)
(-30.9198 -0.000919658 1.00143e-24)
(-30.9188 -0.00635601 -5.53122e-25)
(-30.9209 -0.00837168 -1.57398e-26)
(-30.9224 -0.0133453 3.54436e-25)
(-30.9231 -0.0155118 -2.59253e-25)
(-30.924 -0.0201054 -3.16524e-25)
(-30.9263 -0.0222487 -3.36118e-25)
(-30.9282 -0.026797 3.48669e-25)
(-30.9311 -0.0284292 1.09735e-24)
(-30.9336 -0.0336279 -1.85753e-24)
(-30.937 -0.0338575 1.63139e-24)
(-30.9404 -0.0408762 1.12531e-24)
(-30.944 -0.038242 -9.16048e-24)
(-30.9479 -0.048893 -8.61504e-25)
(-30.9521 -0.0412932 5.08051e-24)
(-30.958 -0.0577142 4.38843e-25)
(-30.9646 -0.0435887 6.02723e-26)
(-30.97 -0.0660614 7.48529e-24)
(-30.9747 -0.047128 -1.05543e-24)
(-30.9422 -0.0713721 -4.48519e-24)
(-30.4296 -0.0484691 4.45258e-24)
(-28.8251 -0.0464698 7.27825e-27)
(-26.8318 -0.00609572 -7.23416e-23)
(-24.3408 -0.0255728 -1.53256e-22)
(-18.828 0.014812 2.11756e-22)
(-18.8147 -0.0127506 5.42518e-23)
(-24.2647 0.0220387 3.64278e-24)
(-26.7087 0.00715473 -8.81092e-23)
(-28.6559 0.0413629 2.9764e-25)
(-30.3152 0.0480954 -6.50625e-25)
(-30.9504 0.0681379 -3.06214e-25)
(-31.0034 0.0487354 -1.06314e-24)
(-30.9959 0.0638136 7.87896e-24)
(-30.9899 0.04428 -6.312e-25)
(-30.985 0.0562685 -4.76159e-25)
(-30.9808 0.0414239 -4.19992e-26)
(-30.9768 0.0478744 -1.30849e-25)
(-30.9736 0.0382182 -3.00501e-24)
(-30.9734 0.0399052 -2.05444e-24)
(-30.9736 0.0340091 1.20681e-24)
(-30.9663 0.0325225 9.80459e-25)
(-30.9607 0.0288768 2.59941e-25)
(-30.9588 0.0254745 4.65728e-25)
(-30.9578 0.0230434 -1.89882e-24)
(-30.9533 0.0185859 -8.69176e-26)