/*--------------------------------*- C++ -*----------------------------------*\
| =========                 |                                                 |
| \\      /  F ield         | OpenFOAM: The Open Source CFD Toolbox           |
|  \\    /   O peration     | Version:  1.7.x                                 |
|   \\  /    A nd           | Web:      www.OpenFOAM.com                      |
|    \\/     M anipulation  |                                                 |
\*---------------------------------------------------------------------------*/
FoamFile
{
    version     2.0;
    format      ascii;
    class       volScalarField;
    location    "30";
    object      T;
}
// * * * * * * * * * * * * * * * * * * * * * * * * * * * * * * * * * * * * * //

dimensions      [0 0 0 1 0 0 0];

internalField   nonuniform List<scalar> 
135588
(
300.15762
300.11938
300.02631
299.96051
299.91789
299.91984
299.99061
300.11797
300.16593
300.01739
300.09069
300.07124
300.03075
299.98193
299.93326
299.93958
300.06025
300.12991
300.07681
300.04804
300.04911
300.0401
300.03024
299.95784
299.91982
299.97983
300.0373
300.02349
300.05758
300.06826
300.02479
300.02927
300
299.95755
299.95611
299.97153
300.03758
300.07378
300.08334
300.05167
300.01067
300.0151
299.99896
300.00104
299.971
300.03572
300.05476
300.04418
300.04028
300.00142
300.00096
300.0039
300.00016
299.97651
299.96571
300.02516
300.02199
300.02165
300.01214
299.94417
299.99406
299.99571
299.99723
299.96381
299.98307
299.97533
300.02505
300.00818
299.99069
299.91401
299.98725
299.98886
299.99017
299.967
299.98245
299.97953
299.99555
299.98433
299.97142
299.89076
299.98275
299.98373
299.98463
299.96787
299.96577
300.0073
299.97655
299.94693
299.95038
299.96034
299.97857
299.97947
299.98019
299.9694
299.98484
299.97284
299.9552
299.94332
299.95806
299.88758
299.97536
299.97558
299.97586
299.97127
299.97887
299.97433
299.96443
299.95657
299.95985
299.79196
299.97413
299.97464
299.97471
299.97335
299.97059
299.99552
299.99799
299.95621
299.94023
300.0023
299.97255
299.97254
299.97252
299.97205
299.96518
299.97865
299.9957
299.95447
299.92812
299.93441
299.97282
299.97331
299.97316
299.97221
299.96587
299.96893
299.97576
299.95304
299.95926
299.90833
299.971
299.97086
299.97066
299.97011
299.96465
299.97674
299.97469
299.95951
299.95997
299.83629
299.96975
299.96976
299.96909
299.96819
299.96448
299.9913
299.99184
299.94235
299.96144
299.88528
299.96725
299.96717
299.96681
299.9661
299.96363
299.992
300.00511
299.95093
299.90687
300.10505
299.96557
299.9656
299.9647
299.96389
299.96265
299.98069
299.99951
299.99873
299.94718
300.06298
299.96278
299.96272
299.96258
299.9617
299.96067
299.96888
299.98355
300.02131
299.96898
300.03495
299.96088
299.96111
299.96065
299.95985
299.95933
299.9624
299.97043
300.0071
300.02077
299.82719
299.96089
299.96095
299.96073
299.95948
299.95863
299.96058
299.97865
299.99478
300.05148
299.91059
299.96015
299.96061
299.96069
299.95971
299.95929
299.96029
299.98059
299.98629
299.99541
299.92456
299.96198
299.9622
299.96185
299.96051
299.95929
299.96002
299.98477
299.98119
300.01937
299.934
299.96105
299.96169
299.96139
299.95975
299.95902
299.95867
299.9785
299.98394
299.96206
299.97247
299.96098
299.96116
299.9608
299.95959
299.9577
299.95752
299.96902
299.99198
300.02385
299.86694
299.95959
299.95979
299.95863
299.9566
299.95612
299.95401
299.95586
299.96686
300.02668
299.87556
299.95761
299.95734
299.95647
299.95645
299.9539
299.95462
299.95312
299.96771
299.99443
299.89171
299.95554
299.95677
299.95574
299.95241
299.95291
299.94918
299.95277
299.97569
299.97221
299.97517
299.95395
299.95287
299.95103
299.95255
299.9496
299.95128
299.95148
300.02699
299.95132
299.87002
299.95175
299.95528
299.95422
299.94873
299.94879
299.94498
299.9479
299.97596
299.89428
299.62299
300.34974
300.24421
300.17206
300.03667
300.00385
299.9986
299.9389
300.02912
300.04206
299.94068
300.18041
300.16652
300.10122
300.03413
300.00721
299.93221
299.94884
300.05034
300.05736
300.02485
300.06109
300.08713
300.05977
300.02427
299.96609
299.96011
300.00199
300.07247
300.05288
299.99083
300.01643
300.05582
300.04135
299.98632
299.9636
299.96127
300.02055
300.05242
300.02853
299.97096
299.99842
300.0417
299.99002
299.95134
299.9547
299.98411
300.00617
300.00952
299.99713
299.95571
299.99003
300.01729
299.97935
299.96817
299.96159
299.99887
300.01648
300.00218
299.99672
299.94379
299.98495
300.00387
299.97938
299.94511
299.96242
300.01286
300.01633
300.01924
299.9635
299.97658
299.98041
299.99693
299.97108
299.9604
299.98503
300.00819
300.01693
300.00876
299.99404
299.93045
299.97791
299.98705
299.97554
299.97267
299.98719
299.97228
300.02254
299.98916
299.98904
299.94008
299.97562
299.98109
299.97277
299.97185
299.98929
299.9899
299.99224
299.97024
299.97945
299.96476
299.97405
299.97674
299.97449
299.97821
299.97892
300.0124
299.96017
299.95994
299.9924
299.9335
299.97407
299.9749
299.9743
299.97004
300.00093
299.98442
299.9816
299.96233
299.97833
299.89869
299.97325
299.97295
299.97272
299.97102
299.9852
299.99842
300.01495
299.95895
299.95909
299.89051
299.97424
299.97346
299.97275
299.97172
299.96981
299.99449
299.99594
299.95488
299.95137
299.92117
299.973
299.97204
299.97132
299.97027
299.96588
299.97494
299.97301
299.94273
299.97031
299.88345
299.97166
299.97058
299.96968
299.96873
299.96496
299.98204
299.98348
299.94341
299.97316
299.86934
299.96885
299.96824
299.96732
299.96625
299.96389
299.995
300.0004
299.94775
299.97505
299.99451
299.96658
299.96595
299.96516
299.96433
299.96283
299.99063
300.00149
299.98219
299.92729
300.06758
299.96397
299.96361
299.96291
299.96193
299.96074
299.97567
299.98378
299.99147
300.00376
299.88261
299.962
299.96183
299.96121
299.96036
299.95977
299.96714
299.98408
299.9982
299.99127
299.98949
299.96261
299.96233
299.9612
299.96
299.95917
299.96166
299.98114
300.01336
299.95542
300.05787
299.96203
299.96213
299.96116
299.96033
299.96008
299.96146
299.98116
300.00016
300.04431
299.92306
299.96441
299.96455
299.9628
299.96145
299.96037
299.96096
299.98274
299.98922
299.9787
299.87145
299.96299
299.9633
299.96173
299.96079
299.96015
299.95966
299.98281
299.99731
300.01169
299.8923
299.96338
299.96321
299.96157
299.96085
299.95934
299.95886
299.97477
299.99764
300.01228
299.92076
299.96092
299.9611
299.95928
299.95761
299.95694
299.95449
299.9647
299.9978
300.02338
299.90912
299.9592
299.9588
299.95747
299.95787
299.95588
299.95644
299.95648
299.99374
299.95668
300.01502
299.95625
299.95715
299.95568
299.95304
299.95294
299.94886
299.95735
300.00815
299.87814
300.01358
299.95572
299.95431
299.95275
299.95418
299.95218
299.95322
299.94665
300.03323
299.99965
299.8503
299.95313
299.95606
299.95289
299.94907
299.94835
299.94588
299.94256
299.93474
299.91428
299.52035
300.4295
300.29035
300.2511
300.1405
300.05253
299.95562
300.01528
300.00874
299.97116
299.98372
300.32615
300.24022
300.1847
300.04629
300.05467
299.97645
300.00672
300.07017
300.01219
299.90009
300.1117
300.1086
300.11605
300.05893
300.01985
299.99989
300.02059
300.01578
299.98623
299.99955
300.02871
300.05861
300.09435
300.03672
299.99104
300.02791
300.0178
300.01025
299.99975
299.97692
299.99486
300.0628
300.0549
299.98248
300.00411
299.98731
300.03211
300.01231
299.99869
299.96735
299.98424
300.07092
300.00228
299.98584
300.00476
300.04461
300.02118
300.00575
299.99672
299.97768
299.97866
300.02922
299.99168
299.98269
299.98784
300.02327
299.99115
300.01596
299.99242
299.98533
299.97461
300.0306
299.99028
299.96996
300.0064
299.9873
300.0135
299.98105
299.98065
299.94739
299.97362
300.02909
299.98332
299.98108
299.99807
299.994
299.9874
299.96118
299.98258
300.0001
299.9722
299.99502
299.97864
299.98
299.9779
299.99579
299.96122
299.94989
300.01177
299.91848
299.97134
299.99438
299.97826
299.97577
299.99394
299.958
299.96366
299.9528
299.98212
299.98275
299.97248
299.99031
299.97559
299.97113
299.98138
299.9697
299.99403
299.95228
299.98167
299.97874
299.972
299.97978
299.97421
299.97179
299.96591
299.99715
299.99494
299.94396
299.93735
299.99259
299.97407
299.97311
299.97248
299.97174
299.96414
299.97553
299.96582
299.9286
299.91373
299.96907
299.97275
299.97231
299.97092
299.97019
299.96474
299.97046
299.97681
299.93403
299.98851
299.86377
299.97121
299.97029
299.96935
299.96876
299.96533
299.98537
299.99975
299.94287
299.97467
299.84244
299.96901
299.96815
299.96715
299.96643
299.96421
299.9866
299.99838
299.96524
299.93729
299.87344
299.96624
299.96591
299.96527
299.96443
299.96308
299.97806
299.98697
299.99158
299.95
299.9079
299.96425
299.9638
299.96289
299.9619
299.96103
299.96814
299.98022
300.00278
299.98785
299.93582
299.96238
299.96191
299.96141
299.9608
299.96037
299.96389
299.97888
300.0075
299.99633
299.99408
299.96309
299.96285
299.96179
299.96062
299.95979
299.96133
299.97855
300.00187
300.01144
300.02315
299.96316
299.96302
299.96203
299.96114
299.96078
299.96125
299.98061
299.99318
299.99689
299.97938
299.96511
299.96542
299.9638
299.9626
299.96093
299.96132
299.98445
299.99406
299.9743
300.05836
299.9643
299.96505
299.96307
299.96169
299.96085
299.95976
299.97641
300.00155
299.94888
300.0545
299.96415
299.96444
299.96249
299.96192
299.95941
299.95959
299.97476
300.02658
299.97616
300.0654
299.96146
299.96212
299.96023
299.95826
299.95767
299.95484
299.96086
300.02012
300.01938
299.91922
299.95956
299.95971
299.9584
299.95862
299.95532
299.95657
299.95891
300.01707
300.027
299.91989
299.95718
299.9585
299.95618
299.95375
299.95438
299.94998
299.95536
300.00486
300.02501
299.90614
299.95545
299.95471
299.9534
299.95515
299.95122
299.95165
299.94372
299.98244
299.96402
299.84491
299.95438
299.95733
299.95386
299.94974
299.95045
299.9487
299.94792
299.92484
299.86798
299.56628
300.3583
300.31663
300.2607
300.22272
300.14528
300.02504
299.95823
299.96615
299.99325
299.88756
300.42359
300.29814
300.21971
300.17208
300.12734
300.05368
300.01322
299.93829
299.92968
299.92363
300.20775
300.14306
300.16235
300.14291
300.08017
300.03866
299.94709
299.99278
299.99437
299.90559
300.05792
300.05249
300.13623
300.08877
300.02635
300.03177
299.96812
299.97207
299.93954
299.90374
300.00864
300.01208
300.10232
299.99113
300.0343
299.9932
300.01792
299.99113
299.97611
299.94114
299.98038
300.02459
300.03704
299.97934
300.02965
300.0028
299.96957
299.9859
299.98467
299.9842
299.97928
300.06631
300.00113
300.00736
299.99102
300.00055
299.99444
299.98354
299.98438
299.96011
299.96876
300.01284
299.98685
299.96456
299.98747
300.01928
299.98877
299.95762
299.96596
300.00842
299.97527
300.0062
299.98418
299.9843
300.02494
299.97055
299.96096
299.94759
299.98201
299.91134
299.97125
299.99816
299.98634
299.9752
299.99894
299.95535
299.98751
299.95654
299.9732
299.86509
299.97057
299.9883
299.9821
299.98604
299.99607
299.98117
299.98794
299.96373
299.96262
300.0217
299.96949
299.99253
300.01544
300.00085
299.98143
299.98439
299.95963
299.96295
299.97205
299.93891
299.96085
300.0263
300.00666
299.97453
299.9701
299.96186
299.95688
299.93006
299.94977
299.96032
299.97328
300.03147
299.98692
299.9716
299.97081
299.94622
299.97673
299.92751
299.94909
299.95211
299.97074
299.99705
299.97614
299.97078
299.96672
299.96639
299.99139
299.96089
299.96911
299.80798
299.97039
299.97658
299.9708
299.96935
299.96188
299.99358
299.98931
299.96267
299.97892
299.85982
299.96827
299.96969
299.96759
299.96682
299.9622
299.98522
299.99761
299.98321
299.98832
299.90721
299.9659
299.96619
299.96513
299.96458
299.96195
299.98002
299.98951
300.01099
299.98489
299.94118
299.96384
299.96387
299.96307
299.96232
299.96098
299.98783
299.98604
300.01938
299.98065
299.97548
299.96239
299.96231
299.96157
299.96107
299.96096
299.98695
299.9894
300.01675
300.00711
300.02797
299.9627
299.96281
299.96189
299.9612
299.96061
299.97712
299.98873
300.00842
300.01882
300.03667
299.9632
299.96312
299.96238
299.96171
299.96161
299.97001
299.99243
299.99404
300.02003
300.00871
299.96501
299.96559
299.96397
299.96314
299.96161
299.96375
299.99079
299.99939
300.00312
300.00272
299.96449
299.96526
299.96361
299.96232
299.96141
299.9604
299.98267
300.00801
299.98817
299.99252
299.96423
299.96506
299.963
299.96207
299.96004
299.96038
299.97834
300.01012
299.96491
300.06216
299.96198
299.96249
299.96059
299.95888
299.9582
299.95517
299.96737
300.01483
300.00109
300.02041
299.95983
299.9603
299.9591
299.95885
299.95591
299.95708
299.96112
300.01055
300.04646
299.84355
299.95831
299.95854
299.95639
299.95401
299.95463
299.95053
299.95682
300.00921
299.9559
299.94206
299.95543
299.95612
299.95475
299.95576
299.95213
299.9518
299.94844
300.01457
299.96664
299.81788
299.95592
299.95631
299.9538
299.94987
299.95028
299.94869
299.94362
299.92111
299.84394
299.70721
300.32686
300.24861
300.19085
300.19897
300.1383
300.11367
299.98806
299.93071
299.93237
299.92215
300.41602
300.30557
300.22754
300.20928
300.12932
300.06107
299.99791
300.00077
299.94098
299.89151
300.25887
300.20318
300.23905
300.11444
300.14077
300.08377
300.02136
299.9503
299.95117
299.9114
300.08886
300.07951
300.15094
300.12077
300.07921
300.11993
300.00243
299.95503
299.94022
299.90501
300.02045
300.02892
300.07518
300.07246
300.03316
300.08246
299.99388
299.96033
299.92271
299.9215
299.99828
299.9629
300.02647
300.00308
300.03562
300.05009
300.00963
299.96991
299.92384
299.92234
299.98012
299.9892
300.03487
299.95858
300.02686
300.04296
299.97505
299.96976
299.95513
299.9001
299.98212
300.03914
299.97595
299.9807
300.02782
300.00556
299.99441
299.96967
299.96596
299.8642
299.96894
299.99392
299.98113
300.00253
300.01199
300.0184
299.99535
299.95874
299.95521
299.89539
299.97313
300.00014
299.96939
299.98927
300.03729
299.96924
299.95726
299.95354
299.95619
299.96717
299.96442
300.05687
299.98177
299.99951
300.01426
299.96037
299.98677
299.95455
299.95706
300.03595
299.96965
299.98003
299.97041
299.99666
299.99054
299.99179
299.98993
299.9723
299.9696
299.9576
299.9724
299.94228
299.97001
300.0056
300.00187
299.9744
299.95163
300.00518
299.9728
299.89176
299.96801
299.99958
299.97831
299.98533
299.97945
299.97177
299.96544
299.98207
299.97539
299.84319
299.97106
300.00906
299.97179
299.9708
299.96359
299.99565
299.99271
299.93073
299.97942
299.87172
299.96918
299.97781
299.97004
299.96509
299.96217
299.9779
299.98697
299.94363
299.96257
299.9653
299.96706
299.97004
299.96691
299.96474
299.96257
299.97349
299.99181
299.97314
300.01918
299.93756
299.96531
299.96651
299.96522
299.96421
299.96202
299.97741
299.98894
299.9911
299.96134
300.03108
299.96307
299.96361
299.96293
299.96213
299.96103
299.98195
299.96502
300.0007
299.95434
300.02266
299.96221
299.9627
299.96235
299.96174
299.96116
299.98257
299.96857
300.01425
300.00701
299.98118
299.96249
299.9633
299.96267
299.96178
299.96101
299.97153
299.97405
299.99857
299.9853
299.98074
299.96338
299.96374
299.9632
299.96269
299.96231
299.96519
299.97938
300.00424
300.01565
299.9962
299.96482
299.96605
299.96507
299.96385
299.96206
299.96255
299.97882
299.98781
299.95202
300.04697
299.9646
299.96573
299.96468
299.96328
299.96201
299.96084
299.9832
299.9913
299.99293
299.97204
299.9637
299.96495
299.96384
299.96271
299.96048
299.95981
299.97856
299.998
300.02435
299.8707
299.96197
299.9627
299.96161
299.95963
299.95852
299.95659
299.97008
299.97858
299.98268
299.95422
299.95955
299.96036
299.95916
299.959
299.95685
299.95642
299.95861
300.0088
299.98164
299.94557
299.9581
299.95858
299.95738
299.9548
299.95447
299.95198
299.9567
300.01222
300.00545
299.97775
299.95579
299.95616
299.95484
299.95553
299.95341
299.95173
299.94886
299.98637
299.97103
299.80491
299.95472
299.95594
299.95468
299.95065
299.94972
299.94873
299.94515
299.96274
299.92279
299.68249
300.40783
300.34017
300.23591
300.22559
300.16103
300.0372
300.00522
300.03574
299.91999
299.86109
300.50137
300.31858
300.27201
300.27644
300.15329
300.07874
300.01927
299.95193
299.96426
299.91644
300.29557
300.2285
300.30189
300.16508
300.15642
300.11633
299.98739
299.9819
299.92457
299.88122
300.12429
300.11361
300.2144
300.14755
300.1206
300.07716
299.99509
299.97548
299.94264
299.9226
300.04634
300.15165
300.14815
300.10162
300.06119
300.04369
299.98407
299.97137
299.92936
299.89923
300.00407
300.0528
300.07563
300.03685
300.04862
300.03871
300.02037
299.99121
299.92394
299.89144
299.9905
299.88394
300.00326
299.99547
300.02681
299.97722
300.02172
299.95328
299.93411
299.85801
299.97149
299.93102
299.98813
299.96514
300.03053
299.98613
299.99172
299.98011
299.94131
299.87017
299.9737
300.00859
299.97738
299.96987
299.99663
300.00999
299.95165
299.98535
299.9466
299.92639
299.96513
299.96689
299.96438
300.01008
299.99795
299.99234
299.98809
299.97521
299.96919
299.96552
299.97065
299.98972
299.96813
299.98886
300.02061
300.01575
300.00814
299.96505
299.9698
299.91362
299.96543
299.97019
299.96477
300.00156
300.01704
299.97187
299.97459
299.95969
299.9693
299.8713
299.96889
299.98678
299.96818
300.01047
299.99315
299.97519
299.99076
299.9617
299.96858
299.91237
299.97159
300.00884
299.96786
299.99996
299.99881
299.99917
299.99154
299.96586
299.98347
299.83567
299.96271
300.02167
299.98248
299.9971
299.97829
299.97002
299.97523
299.97615
299.98031
299.87336
299.96704
299.98121
299.97026
299.98448
299.9668
299.97348
299.98771
299.9706
299.9857
300.02955
299.96651
299.95895
299.97285
299.98129
299.96226
299.9892
299.99768
299.9766
299.96595
300.07192
299.96311
300.00511
299.96854
299.96671
299.9618
299.97542
299.98787
299.97857
299.99957
300.04712
299.96211
299.97402
299.96406
299.96294
299.96061
299.9652
299.99601
299.98125
299.97138
300.07592
299.96168
299.96525
299.96238
299.9618
299.96096
299.97479
299.98001
299.98956
299.97316
300.02104
299.96226
299.96436
299.96293
299.962
299.9612
299.98464
299.97036
300.02455
300.01342
300.0016
299.96339
299.96475
299.96382
299.9632
299.96266
299.98279
299.97461
300.01487
299.97761
300.01633
299.96464
299.9662
299.9649
299.96382
299.9622
299.971
300.00128
300.01709
300.00241
299.9833
299.9642
299.96566
299.96455
299.96334
299.96189
299.96219
299.97683
300.00161
299.97522
300.02154
299.96316
299.96481
299.96378
299.96253
299.96059
299.95994
299.97061
300.0074
300.01566
299.9183
299.96168
299.96233
299.96134
299.95967
299.95843
299.9562
299.97452
299.96676
300.00999
299.82909
299.95935
299.96031
299.95957
299.95925
299.95694
299.95654
299.96548
299.973
299.94411
300.05479
299.95735
299.95845
299.95703
299.95484
299.95505
299.95161
299.95644
299.99768
300.00756
299.79228
299.95679
299.95647
299.95534
299.95627
299.95303
299.95222
299.95111
300.003
300.03844
299.80335
299.95361
299.95653
299.95495
299.95087
299.95069
299.94829
299.94482
299.96923
299.90666
299.70944
300.72961
300.50434
300.30177
300.17239
300.17408
300.05936
300.009
299.97237
300.00228
299.92367
300.71291
300.52031
300.51108
300.35558
300.23312
300.0904
300.00268
299.9832
299.91352
299.90886
300.47583
300.39633
300.45764
300.39434
300.21983
300.13303
300.01206
299.97469
299.95357
299.89264
300.24546
300.19403
300.34319
300.25692
300.23154
300.14292
300.01031
299.98581
299.94316
299.89682
300.11466
300.11859
300.25257
300.1735
300.1624
300.10119
300.01939
299.97241
299.94607
299.90886
300.0414
300.08735
300.15044
300.10307
300.09717
300.12518
300.02455
299.94404
299.91655
299.87798
300.00171
300.06324
300.05389
300.09014
300.08633
300.04177
299.99321
299.92394
299.93904
299.87771
299.98773
300.03367
300.02088
300.0324
300.04033
300.00538
299.98548
299.93709
299.91262
299.87637
299.96971
299.96731
299.99302
299.99967
300.04275
300.02317
299.95359
299.95175
299.92791
299.85548
299.97285
299.95184
299.96429
300.04212
300.00942
300.00897
299.92642
299.96455
299.98245
299.83551
299.96352
299.99232
299.96806
299.97388
300.01214
299.97055
299.96649
299.97454
299.99932
299.82268
299.96753
299.96407
299.96729
299.99744
300.00884
299.99188
300.00386
299.9559
299.96296
299.89551
299.966
299.95019
299.97694
300.01147
300.00284
299.99525
299.98441
299.94927
299.94212
299.94717
299.9686
300.00177
299.96668
299.99156
300.00356
299.97121
300.00268
299.94741
299.94588
299.94644
299.96778
299.96944
299.96511
299.98913
299.99247
299.99412
299.99427
299.95832
299.94248
300.00305
299.96645
299.96588
299.96405
299.98731
299.98553
299.9845
299.97361
299.98016
299.98219
300.09329
299.96429
299.965
299.96338
299.97922
299.97016
299.96423
299.98574
300.00464
299.98123
300.05722
299.96308
299.94002
299.96426
299.96606
299.96257
299.97666
299.99688
300.00298
299.98513
300.01091
299.96296
299.95323
299.96219
299.95462
299.96084
299.98522
299.99075
299.99445
300.00304
300.01671
299.96148
299.97241
299.96209
299.95721
299.96234
299.98368
299.98279
300.00633
299.98268
299.9924
299.96175
299.96544
299.96289
299.96032
299.96166
299.9885
299.98903
300.00122
300.02583
299.95671
299.96331
299.96448
299.96408
299.96299
299.96347
299.99118
299.98848
300.02171
299.97746
300.03095
299.96363
299.96541
299.96483
299.96343
299.96236
299.97718
299.98022
300.004
300.00148
300.00326
299.96327
299.96484
299.96416
299.96273
299.96158
299.9662
299.99325
299.9961
300.02285
299.966
299.96239
299.96363
299.96271
299.96178
299.96035
299.95978
299.97921
299.99218
299.97503
299.99652
299.9607
299.9615
299.96078
299.95874
299.9578
299.95689
299.98313
299.9951
300.01276
299.95367
299.95891
299.95939
299.95906
299.95871
299.95678
299.95574
299.96196
299.99938
300.00203
299.89612
299.95682
299.95774
299.95667
299.95439
299.9541
299.95317
299.95671
299.99155
299.99478
299.93672
299.95663
299.95618
299.95512
299.95569
299.953
299.95071
299.9487
299.99614
299.97184
299.9724
299.9532
299.95524
299.95448
299.95116
299.95002
299.9505
299.9457
299.96092
299.93794
299.78188
300.51505
300.39986
300.09559
300.08179
300.05814
300.0425
300.10153
300.01032
299.98383
299.93828
300.67891
300.61104
300.60676
300.44002
300.13309
300.11048
300.05554
300.03009
299.98728
299.96539
300.48098
300.37892
300.60405
300.47194
300.2568
300.15643
300.07683
300.04361
299.9514
299.91422
300.26871
300.28053
300.4051
300.28083
300.24224
300.17627
300.08435
300.01816
299.93312
299.88327
300.13411
300.18978
300.18502
300.16484
300.21359
300.17649
300.00576
299.96993
299.89909
299.88979
300.05565
300.05256
300.04557
300.05937
300.15519
300.03913
299.96766
299.92356
299.88052
299.87665
300.01058
299.96494
299.99929
299.99475
300.02579
299.98482
299.98779
299.90639
299.89607
299.87519
299.98771
300.03279
299.97285
299.97679
300.00026
300.02312
299.99666
299.914
299.91306
299.86413
299.97271
299.79445
299.97699
300.03111
300.0297
299.96991
300.05031
299.90819
299.9149
299.84857
299.95612
299.89047
300.00085
299.95494
299.98288
299.98756
300.06916
299.93279
299.93479
299.86042
299.96645
299.95052
299.97378
299.94524
299.99801
300.02645
300.04153
300.02701
300.05512
299.87685
299.94861
299.80543
300.02009
299.98591
300.02162
300.00695
300.03394
300.09734
300.11969
299.96042
299.9684
300.12997
299.97256
299.96671
299.99632
300.02588
300.03842
300.07613
300.0869
300.04601
299.97133
299.97154
299.96498
299.96945
300.01249
300.01462
300.00557
300.01396
300.03606
300.09629
299.95666
299.92711
299.98413
299.98641
300.00923
299.98093
300.01884
299.99647
299.99038
300.12444
299.95919
300.04139
299.97021
299.99152
299.995
299.98334
300.01244
299.9931
299.99634
300.11582
299.96127
299.88551
299.96333
299.9703
299.99144
300.00052
299.98844
300.00608
299.99821
300.09404
299.96102
299.98344
299.96921
299.96298
299.97062
299.97337
299.97367
300.01059
300.00789
300.0164
299.9596
300.03109
299.96072
299.97817
299.96133
299.9682
299.97869
300.01518
300.00438
300.01301
299.9617
299.97143
299.96255
299.98919
299.96037
299.98621
299.98142
300.01334
300.00553
299.99797
299.96168
299.97502
299.9624
299.97289
299.96074
299.98859
300.00631
299.99026
300.01933
299.97058
299.96408
299.96241
299.96502
299.9651
299.96137
299.98038
300.00088
299.98699
299.99973
299.97879
299.96372
299.96279
299.96381
299.9634
299.96136
299.98304
299.9917
299.97805
299.97576
300.00722
299.96346
299.96322
299.96362
299.96248
299.96078
299.97935
299.98541
300.01118
299.97086
300.01586
299.96171
299.96237
299.96202
299.96095
299.95942
299.96752
299.97468
300.01552
300.01647
299.97821
299.96018
299.9604
299.95932
299.95809
299.95779
299.95707
299.97909
299.99691
299.96395
299.97641
299.95823
299.95892
299.95837
299.9579
299.9555
299.95668
299.9671
300.01633
300.01079
299.98131
299.95658
299.95716
299.95632
299.9545
299.95557
299.9521
299.95788
300.00592
300.05277
299.97001
299.95635
299.9565
299.95515
299.95506
299.95137
299.95246
299.94991
299.97905
299.99901
299.95704
299.95374
299.95467
299.95487
299.95153
299.95158
299.94906
299.94654
299.95546
299.93561
299.78953
300.44753
300.19818
300.00588
300.08167
300.03909
300.08275
300.0116
299.96385
299.927
299.87577
300.62303
300.41819
300.27354
300.07923
300.09083
300.08784
300.0423
300.03602
299.93257
299.92874
300.53841
300.49159
300.65237
300.2113
300.16234
300.12075
300.04973
299.97759
299.96228
299.91266
300.48465
300.34784
300.5568
300.49914
300.17666
300.08972
300.0063
299.96893
299.9133
299.90656
300.31508
300.26567
300.38665
300.4042
300.2498
300.12175
300.00757
299.94106
299.91587
299.9058
300.13542
300.27286
300.26218
300.26214
300.32638
300.12811
300.03634
299.94107
299.93289
299.89897
300.05066
300.16575
300.13615
300.17509
300.25602
300.14924
300.05457
299.96469
299.96014
299.89652
299.99952
300.02304
300.0756
300.1014
300.14974
300.1707
300.11619
299.96254
299.96105
299.90216
299.98752
299.98817
300.01512
300.04659
300.12965
300.12394
300.15452
300.03941
299.99323
299.93267
299.97044
299.96637
299.97648
300.04381
300.08158
300.09316
300.12659
300.12675
300.07712
299.96637
299.97007
300.02227
300.00323
300.02751
300.04671
300.06023
300.05628
300.13831
300.13246
300.04248
299.96431
299.77067
300.00556
300.01082
300.03074
300.01746
300.0584
300.11713
300.1217
300.09914
299.9733
299.90331
300.03379
299.95863
300.01164
300.02482
300.03402
300.0706
300.0945
300.12314
299.903
300.00392
299.97705
300.01309
300.01296
300.01777
299.9984
300.00619
300.03009
300.12465
299.90559
300.02326
300.0352
299.9892
299.99284
299.97679
300.01143
299.9975
299.9908
300.07713
300.03018
299.95008
299.98639
299.98936
299.98238
299.9736
300.00465
300.01609
300.00706
300.03376
299.98027
299.82944
299.97404
300.00626
299.97827
299.96993
299.97433
300.00882
300.01652
300.02351
299.95079
300.08576
300.02345
299.97901
299.96565
299.97196
299.96717
300.0065
300.00304
300.02307
299.96857
299.98256
299.97216
299.97785
299.95975
299.9771
299.96928
300.02034
299.98591
300.00772
299.96474
299.95875
299.9789
299.97822
299.9598
299.97629
299.9909
300.00188
300.00869
299.96303
299.96411
300.00218
299.96717
299.97556
299.96164
299.97948
299.98545
299.99293
300.00877
299.98446
299.96531
299.94759
299.96789
299.96869
299.96123
299.98356
299.96916
299.9967
299.97166
300.01789
299.96418
299.99913
299.97477
299.96409
299.96066
299.99822
299.99287
299.99029
299.98962
300.00709
299.96296
299.9922
299.96537
299.9626
299.96059
299.99207
300.00449
299.9741
299.99485
299.98127
299.96148
299.96792
299.96148
299.9605
299.959
299.97053
299.99061
300.0049
299.98219
299.9995
299.95985
299.96173
299.95984
299.95808
299.95783
299.95818
299.97884
300.00923
300.02273
299.95076
299.95818
299.95887
299.95816
299.95808
299.95619
299.95719
299.97552
299.99024
300.00768
300.00964
299.95707
299.95777
299.9578
299.95519
299.95575
299.95293
299.96266
299.98866
299.98852
299.98389
299.95657
299.95667
299.95547
299.9559
299.95374
299.95387
299.95294
299.98363
300.01065
300.00432
299.95507
299.95544
299.95529
299.95198
299.95102
299.94921
299.94399
299.96455
299.95767
299.85565
300.53818
300.30962
300.21218
300.03469
300.07501
300.04396
300.01991
300.00004
299.90915
299.88088
300.59038
300.4289
300.45899
300.22565
300.10424
300.0491
300.0095
299.96654
299.95324
299.92462
300.48142
300.3476
300.34518
300.36873
300.10842
300.0581
300.01291
299.96964
299.94097
299.93484
300.27215
300.27337
300.2869
300.25684
300.19256
300.04983
300.00055
299.97065
299.95519
299.94231
300.1112
300.13643
300.2196
300.13658
300.2324
300.06456
299.98988
299.96898
299.95939
299.94794
300.03826
300.10495
300.15529
300.08978
300.13093
300.07683
299.98135
299.96584
299.95915
299.94905
299.99526
300.01949
300.07777
300.03685
300.08922
300.10748
299.99746
299.97466
299.95472
299.94351
299.97793
299.96796
300.04057
299.96445
300.05429
300.09605
300.06521
299.97267
299.97426
299.95226
299.96132
299.96044
299.95421
299.96857
300.02826
300.0593
300.13949
300.03634
300.02119
299.97651
299.9642
299.91826
299.97046
299.99812
300.01553
300.01039
300.08609
300.11708
300.07912
299.99211
299.96033
299.89489
299.95877
299.97849
300.00761
300.01279
300.01991
300.11871
300.13223
300.07262
299.95431
299.96104
300.0103
299.92049
299.99766
300.00534
299.99029
300.09196
300.12386
300.09238
299.96724
299.93251
299.94119
299.96804
300.00181
299.98229
300.00002
300.0502
300.07487
300.08109
299.94861
300.08491
300.01284
299.942
299.98918
299.99
300.00254
300.00296
300.04507
300.05725
299.96943
299.99113
299.97186
299.98367
299.99184
299.9865
299.98275
300.00639
300.01146
299.99427
299.96455
299.99517
299.99317
299.96765
299.97451
299.97213
299.98775
300.00746
300.00474
299.99236
299.96338
299.98056
299.9693
299.98982
299.97563
299.96191
299.98968
299.99908
299.99588
299.99398
299.96029
299.88394
299.98169
300.01664
299.97173
299.96165
299.97382
299.99674
300.00448
299.98303
299.95877
300.02751
299.99612
299.98071
299.963
299.97491
299.96934
299.99411
300.00508
299.98503
299.9616
300.05113
299.97044
299.9733
299.96054
299.98974
299.98472
299.99561
299.98555
299.98498
299.96621
299.98615
299.96754
299.97987
299.96039
299.98506
299.98292
299.99182
299.99443
299.9959
299.96478
299.98566
299.96712
299.96659
299.96139
299.99215
299.99459
299.98003
299.99009
299.9916
299.96471
299.97538
299.96539
299.9652
299.96133
299.99886
300.0104
299.97514
299.98941
299.96531
299.96366
299.96799
299.96401
299.96348
299.96037
299.98811
300.00194
299.98085
300.00318
299.96314
299.96132
299.96296
299.96159
299.96146
299.9595
299.97074
299.98331
300.00904
299.99142
300.002
299.95986
299.9604