/*--------------------------------*- C++ -*----------------------------------*\
| =========                 |                                                 |
| \\      /  F ield         | OpenFOAM: The Open Source CFD Toolbox           |
|  \\    /   O peration     | Version:  1.7.x                                 |
|   \\  /    A nd           | Web:      www.OpenFOAM.com                      |
|    \\/     M anipulation  |                                                 |
\*---------------------------------------------------------------------------*/
FoamFile
{
    version     2.0;
    format      ascii;
    class       volScalarField;
    location    "0.0015";
    object      alphat;
}
// * * * * * * * * * * * * * * * * * * * * * * * * * * * * * * * * * * * * * //

dimensions      [1 -1 -1 0 0 0 0];

internalField   nonuniform List<scalar> 
206988
(
5.3393044e-06
6.7915692e-07
4.6706195e-08
9.9079817e-09
8.2053747e-09
8.2280014e-09
8.3220799e-09
8.4488683e-09
8.6047241e-09
8.6911867e-09
9.3267268e-09
9.1780855e-09
9.8950602e-09
9.4030594e-09
9.7279045e-09
9.4937413e-09
9.5437375e-09
9.1389431e-09
1.4613898e-08
2.79137e-07
2.0784302e-06
3.0261424e-07
2.052989e-08
1.1526818e-08
1.0990126e-08
1.0931869e-08
1.089014e-08
1.0706327e-08
1.1164419e-08
1.023308e-08
1.2127886e-08
1.0007374e-08
1.2184477e-08
9.9644616e-09
1.1611385e-08
9.6969976e-09
1.0636156e-08
9.5795362e-09
1.3811568e-08
3.0266406e-07
5.4961308e-07
7.1807204e-08
1.6428378e-08
1.4616943e-08
1.4328144e-08
1.4134822e-08
1.3951302e-08
1.3335642e-08
1.4547313e-08
1.1884567e-08
1.5904918e-08
1.1352787e-08
1.5555854e-08
1.1134489e-08
1.4934795e-08
1.128121e-08
1.365215e-08
1.1296135e-08
1.6205746e-08
3.0489271e-07
2.8451165e-07
3.1885612e-08
1.958277e-08
1.9145798e-08
1.8744383e-08
1.8611293e-08
1.8353603e-08
1.6861706e-08
1.9305043e-08
1.4785982e-08
2.1513297e-08
1.3271227e-08
2.0173876e-08
1.3551766e-08
1.8261343e-08
1.3967829e-08
1.6434157e-08
1.4061715e-08
2.0693241e-08
2.639788e-07
2.2073706e-07
3.8206373e-08
2.8362456e-08
2.8284446e-08
2.7267159e-08
2.6897271e-08
2.6819167e-08
2.288219e-08
2.7491858e-08
1.957114e-08
2.8915785e-08
1.6914289e-08
2.5542982e-08
1.8018762e-08
2.2756629e-08
1.8366889e-08
2.0438753e-08
1.8447088e-08
3.4486504e-08
2.2954778e-07
1.7699828e-07
4.997627e-08
4.120338e-08
4.1052133e-08
3.9935116e-08
3.8158296e-08
3.9837751e-08
3.0946178e-08
3.9387953e-08
2.5321962e-08
3.7542303e-08
2.3100182e-08
3.1849845e-08
2.4726932e-08
2.8224416e-08
2.598803e-08
2.5826071e-08
2.575933e-08
3.6275195e-08
1.9339898e-07
1.4235977e-07
4.9759606e-08
4.0672982e-08
4.0434239e-08
4.0515551e-08
4.0227989e-08
4.03639e-08
4.0741327e-08
3.9877025e-08
3.8006308e-08
3.9111984e-08
2.9734931e-08
3.9265077e-08
3.2888538e-08
3.9158539e-08
3.742797e-08
3.963322e-08
3.7529641e-08
5.2138171e-08
1.5435247e-07
1.1644942e-07
4.9976669e-08
4.0345826e-08
4.004174e-08
4.0671706e-08
4.0704036e-08
4.0631417e-08
4.0731315e-08
4.0060057e-08
4.0994699e-08
3.9876991e-08
3.4327692e-08
4.0001374e-08
4.0786591e-08
4.0565326e-08
4.1793569e-08
4.0634594e-08
4.09151e-08
6.4791749e-08
1.2963482e-07
1.0544377e-07
4.7818906e-08
4.1197355e-08
4.098261e-08
4.1089662e-08
4.1102383e-08
4.0700603e-08
4.0823129e-08
4.0700874e-08
4.0831662e-08
3.9791498e-08
3.9234222e-08
3.9328768e-08
4.1621124e-08
3.9827428e-08
4.1156179e-08
3.9723946e-08
3.8583878e-08
5.8031255e-08
1.2941009e-07
1.0117404e-07
4.6987615e-08
4.0617477e-08
4.0480202e-08
4.0410296e-08
4.0365674e-08
4.0025029e-08
4.023354e-08
4.0054132e-08
3.933372e-08
3.9446942e-08
3.776965e-08
3.8664891e-08
3.8554026e-08
3.9385034e-08
4.1399641e-08
4.0641353e-08
4.0991721e-08
5.2078031e-08
1.1582604e-07
1.0301856e-07
4.6695889e-08
4.0523053e-08
4.0347664e-08
4.0351287e-08
4.036e-08
4.0151849e-08
3.2463028e-08
4.018972e-08
3.6483908e-08
4.0004186e-08
3.8995728e-08
3.9433855e-08
3.7995173e-08
3.9659844e-08
3.9170225e-08
4.0432515e-08
3.8044529e-08
5.6520585e-08
1.3086423e-07
1.0790512e-07
4.415489e-08
3.8474177e-08
3.7955761e-08
3.6562161e-08
3.5514776e-08
3.4877464e-08
3.0873516e-08
3.1353539e-08
2.7629011e-08
3.6217242e-08
3.0760129e-08
3.4263971e-08
3.1543135e-08
3.312794e-08
3.0962546e-08
3.2081888e-08
2.9689804e-08
3.7467018e-08
1.4423731e-07
1.1381319e-07
4.0450382e-08
3.5708024e-08
3.5060522e-08
3.4089535e-08
3.315505e-08
3.2527343e-08
3.0814375e-08
2.9721197e-08
2.3904403e-08
3.4834884e-08
2.6354077e-08
3.0506237e-08
2.6065625e-08
2.8455402e-08
2.5534096e-08
2.8077565e-08
2.5105657e-08
3.6403799e-08
1.4537915e-07
1.1701008e-07
3.59373e-08
3.1754753e-08
3.1288805e-08
3.0602971e-08
2.9725646e-08
2.9628777e-08
2.5984937e-08
2.9044786e-08
2.2210862e-08
2.7761728e-08
2.2811463e-08
2.6505504e-08
2.3141291e-08
2.507281e-08
2.2627074e-08
2.4194143e-08
2.1906859e-08
3.0831185e-08
1.5238208e-07
1.1450739e-07
3.5616128e-08
3.1137177e-08
3.0684254e-08
3.0171225e-08
2.957564e-08
2.9263366e-08
2.5828318e-08
2.7766289e-08
2.222364e-08
2.5139089e-08
1.973111e-08
2.6088496e-08
2.1397545e-08
2.3931403e-08
2.0783842e-08
2.2167495e-08
2.0165522e-08
2.5987095e-08
1.5508646e-07
1.1143282e-07
3.4324958e-08
3.0626218e-08
3.0210458e-08
2.9853302e-08
2.9358883e-08
2.928612e-08
2.7243992e-08
2.7262564e-08
1.9584492e-08
2.694878e-08
1.7776591e-08
2.5123148e-08
1.9430348e-08
2.207148e-08
1.9975255e-08
2.0551976e-08
1.9522045e-08
2.4370729e-08
1.5277929e-07
1.0617165e-07
3.3573623e-08
3.0158186e-08
2.9772688e-08
2.9365469e-08
2.8918655e-08
2.8439458e-08
2.7259854e-08
2.6474992e-08
2.0301954e-08
2.52976e-08
1.8443218e-08
2.35094e-08
1.9303136e-08
2.1537828e-08
1.9110483e-08
1.9597569e-08
1.7887216e-08
2.3577009e-08
1.5324527e-07
1.0137387e-07
3.2674539e-08
2.9544387e-08
2.907696e-08
2.8489409e-08
2.7992941e-08
2.7179442e-08
2.626772e-08
2.5829317e-08
2.2351716e-08
2.3305307e-08
2.0186152e-08
2.2129687e-08
1.9410794e-08
2.1325984e-08
1.9146954e-08
1.9446864e-08
1.842618e-08
2.5451907e-08
1.4795222e-07
9.7312146e-08
3.2979975e-08
2.9805243e-08
2.945398e-08
2.8907915e-08
2.8272827e-08
2.7683385e-08
2.6502503e-08
2.7405678e-08
2.2908568e-08
2.4790857e-08
1.7715346e-08
2.5489474e-08
1.7097965e-08
2.2136825e-08
1.7198784e-08
2.0086096e-08
1.7343283e-08
2.4931252e-08
1.3861194e-07
9.3068873e-08
3.3457652e-08
3.0169784e-08
2.9860584e-08
2.9375379e-08
2.8768814e-08
2.8391599e-08
2.7293382e-08
2.7056537e-08
2.4827796e-08
2.6585268e-08
1.8319958e-08
2.5959187e-08
1.7327145e-08
2.2738712e-08
1.6823903e-08
2.0379466e-08
1.6838528e-08
2.1332269e-08
1.3248951e-07
8.9294452e-08
3.350511e-08
2.9885943e-08
2.9449687e-08
2.9105547e-08
2.8446242e-08
2.7981891e-08
2.7063757e-08
2.6359918e-08
2.4459991e-08
2.5789448e-08
2.137592e-08
2.3688506e-08
1.9812232e-08
2.1255921e-08
1.8931426e-08
1.9368179e-08
1.8547291e-08
2.3012933e-08
1.2308232e-07
8.576877e-08
3.4119105e-08
3.1439142e-08
3.0834083e-08
3.0443017e-08
2.9758297e-08
2.9080652e-08
2.8109732e-08
2.7306898e-08
2.5474958e-08
2.6023105e-08
2.2516612e-08
2.3605812e-08
2.1136669e-08
2.1020653e-08
1.9953716e-08
1.9345882e-08
1.9124803e-08
2.4463816e-08
1.1568424e-07
8.147452e-08
3.6789271e-08
3.328044e-08
3.2649488e-08
3.2278842e-08
3.1609198e-08
3.0910214e-08
3.0049844e-08
2.9055092e-08
2.7550518e-08
2.6867578e-08
2.465848e-08
2.4204372e-08
2.2706491e-08
2.2059377e-08
2.1032373e-08
2.0836462e-08
1.9786291e-08
2.4128134e-08
1.0599096e-07
7.7521357e-08
3.6931236e-08
3.3415469e-08
3.2686651e-08
3.2305892e-08
3.1595184e-08
3.0821722e-08
2.9906537e-08
2.8842223e-08
2.7788826e-08
2.6733291e-08
2.5403965e-08
2.4465946e-08
2.3199305e-08
2.2838165e-08
2.1597883e-08
2.1530596e-08
2.0499089e-08
2.458837e-08
9.6623907e-08
7.3058283e-08
3.9556135e-08
3.5838891e-08
3.5163346e-08
3.4793516e-08
3.4042565e-08
3.3283082e-08
3.2298943e-08
3.1111681e-08
2.9659876e-08
2.8150001e-08
2.6727649e-08
2.5782079e-08
2.4352599e-08
2.437484e-08
2.286113e-08
2.2859476e-08
2.1753786e-08
2.5851042e-08
8.9451051e-08
6.7706778e-08
4.137207e-08
3.8030128e-08
3.704085e-08
3.686257e-08
3.6078178e-08
3.5242135e-08
3.4298005e-08
3.3135396e-08
3.1786875e-08
3.0245418e-08
2.8896832e-08
2.775035e-08
2.6456793e-08
2.600297e-08
2.4774174e-08
2.4312534e-08
2.3758239e-08
2.7736865e-08
8.2862574e-08
6.1419166e-08
4.0274291e-08
3.7387566e-08
3.7435391e-08
3.7439402e-08
3.7488684e-08
3.7323908e-08
3.6280824e-08
3.5157387e-08
3.3838988e-08
3.228671e-08
3.0982959e-08
2.9847194e-08
2.8770346e-08
2.7870644e-08
2.7096028e-08
2.6400995e-08
2.5859994e-08
2.9688062e-08
7.7054425e-08
5.4871405e-08
4.111419e-08
3.7830669e-08
3.7881641e-08
3.7849593e-08
3.78682e-08
3.7885344e-08
3.7943918e-08
3.8027874e-08
3.7229076e-08
3.5693877e-08
3.4228732e-08
3.2949883e-08
3.1838769e-08
3.0785597e-08
2.9777481e-08
2.9209934e-08
2.8331668e-08
3.2529758e-08
7.1727012e-08
4.7065727e-08
4.078177e-08
3.7719477e-08
3.7803989e-08
3.7760249e-08
3.7784149e-08
3.781235e-08
3.7874988e-08
3.796859e-08
3.8039923e-08
3.8036538e-08
3.8052545e-08
3.8049992e-08
3.8068446e-08
3.6936926e-08
3.5937978e-08
3.5255756e-08
3.4488727e-08
3.8598284e-08
6.5960172e-08
3.8471187e-08
3.9584435e-08
3.7075055e-08
3.7230513e-08
3.7230806e-08
3.7320543e-08
3.7417714e-08
3.7508467e-08
3.7599563e-08
3.7743296e-08
3.7840363e-08
3.6487691e-08
3.5158844e-08
3.385906e-08
3.2816364e-08
3.1765808e-08
3.0781415e-08
3.0001402e-08
3.1769032e-08
7.0882685e-08
5.2837205e-06
1.7360285e-06
2.1746136e-07
5.141324e-08
4.2785415e-08
4.0449387e-08
4.1770341e-08
4.5704036e-08
4.5732985e-08
4.9393502e-08
4.5284077e-08
5.7498151e-08
4.4507553e-08
7.3217952e-08
5.0002862e-08
7.4429349e-08
5.6894559e-08
7.2318298e-08
2.166859e-08
2.8096115e-07
2.1197683e-06
1.0897688e-06
8.2648006e-08
4.2731831e-08
4.0814484e-08
4.156298e-08
4.5499067e-08
4.8328459e-08
4.282979e-08
5.4835341e-08
4.1125772e-08
6.1935934e-08
3.9921454e-08
6.363762e-08
3.9626185e-08
6.4783278e-08
2.8525888e-08
2.7437843e-08
5.2860637e-08
3.035755e-07
5.5325863e-07
2.2758958e-07
6.6882688e-08
5.8689115e-08
5.5795072e-08
5.5110315e-08
5.1516493e-08
5.6644363e-08
4.8050694e-08
5.3247939e-08
4.505045e-08
4.8873473e-08
4.6413115e-08
4.6730938e-08
4.4469749e-08
4.4211613e-08
4.0375272e-08
2.6820568e-08
3.9186607e-08
3.0239902e-07
2.8911951e-07
7.7045096e-08
6.6925856e-08
6.6411632e-08
6.4465483e-08
6.4687423e-08
5.5537527e-08
6.8402805e-08
5.7875257e-08
5.9314062e-08
5.4004063e-08
5.0233143e-08
5.3309592e-08
4.4342111e-08
5.4264439e-08
4.1833818e-08
5.2878973e-08
3.2405931e-08
5.1453375e-08
2.6483901e-07
2.280361e-07
7.2641879e-08
6.649242e-08
7.1254587e-08
6.3263776e-08
6.7744481e-08
5.8041437e-08
6.7236433e-08
5.9867525e-08
6.3218913e-08
5.5493092e-08
5.0813192e-08
5.9455058e-08
4.5852199e-08
5.4082016e-08
4.4870268e-08
4.9050222e-08
4.0822801e-08
6.3147124e-08
2.3187339e-07
1.8508324e-07
7.9766492e-08
7.7891247e-08
7.8705403e-08
6.8679883e-08
7.3825012e-08
6.8298066e-08
7.1649306e-08
6.9659275e-08
6.7560175e-08
6.2607797e-08
5.6295647e-08
6.0205315e-08
5.1598762e-08
5.5192575e-08
4.6513743e-08
4.6290698e-08
4.5637652e-08
3.8313656e-08
2.0686913e-07
1.4881232e-07
8.1704388e-08
8.915415e-08
9.3563534e-08
7.046277e-08
8.180122e-08
7.4653038e-08
8.9470929e-08
6.8846083e-08
7.7119337e-08
6.3918071e-08
7.3211682e-08
5.9734277e-08
6.8170693e-08
5.5234672e-08
6.2145183e-08
4.938023e-08
5.0910132e-08
8.0717069e-08
1.5947096e-07
1.2515758e-07
8.1941704e-08
7.5385643e-08
8.4135504e-08
7.3266696e-08
7.5531444e-08
7.9683637e-08
8.8337861e-08
7.3246457e-08
7.9239028e-08
7.9386617e-08
6.6611744e-08
6.876877e-08
5.7781774e-08
6.8271887e-08
5.4062906e-08
6.3100482e-08
4.9570395e-08
7.0474515e-08
1.3757287e-07
1.1312227e-07
9.5407819e-08
9.4615683e-08
1.0122529e-07
7.9690913e-08
9.1622617e-08
8.8207146e-08
9.4541403e-08
7.5166808e-08
8.3059385e-08
7.023653e-08
7.5007649e-08
6.6257817e-08
6.0088664e-08
6.2819781e-08
6.1939848e-08
6.4411522e-08
5.6669864e-08
6.4011718e-08
1.2311053e-07
1.0781474e-07
1.0077822e-07
1.0285585e-07
1.0249355e-07
8.6340476e-08
9.2816483e-08
8.575448e-08
9.2613185e-08
7.5847429e-08
9.2186797e-08
7.297299e-08
9.3660428e-08
6.3985844e-08
7.7602624e-08
5.8527589e-08
8.0277533e-08
5.6772145e-08
7.0645958e-08
7.3807531e-08
1.2518009e-07
1.0916607e-07
1.0245103e-07
1.0030043e-07
1.0161578e-07
9.2282295e-08
9.1112659e-08
7.5564939e-08
1.2317746e-07
6.3515806e-08
8.6564245e-08
8.2533133e-08
9.1772643e-08
7.7718764e-08
7.9437575e-08
7.3081057e-08
7.9580725e-08
6.7522252e-08
7.2363648e-08
7.6793387e-08
1.3910401e-07
1.1226818e-07
1.0150574e-07
1.0383382e-07
1.0518022e-07
9.9122506e-08
1.030124e-07
7.9579584e-08
8.9791494e-08
7.676587e-08
7.9473231e-08
9.0504819e-08
1.0780724e-07
8.8057635e-08
7.6618955e-08
8.0155202e-08
7.7192273e-08
7.1186303e-08
7.4999226e-08
7.4570365e-08
1.5126987e-07
1.1832852e-07
1.2151354e-07
1.1359198e-07
1.1766169e-07
9.9950553e-08
1.010664e-07
9.4525029e-08
1.535519e-07
7.3922032e-08
1.4237367e-07
7.9207926e-08
1.0160391e-07
9.5309459e-08
9.6272752e-08
7.8176408e-08
9.7509969e-08
7.716648e-08
8.3369446e-08
8.1152478e-08
1.5165377e-07
1.2296711e-07
1.2356007e-07
1.1289789e-07
1.1397795e-07
1.0237731e-07
1.0889303e-07
8.2369716e-08
6.8727712e-08
7.5490557e-08
1.2135104e-07
7.6514785e-08
9.1128562e-08
9.5254343e-08
1.1030997e-07
8.5645469e-08
1.0630794e-07
8.1428028e-08
8.9996783e-08
7.3320628e-08
1.604517e-07
1.1747515e-07
1.0902628e-07
1.0653134e-07
1.074771e-07
1.0163452e-07
1.0549332e-07
9.9355867e-08
8.0470479e-08
8.2716465e-08
1.4333638e-07
6.5443949e-08
7.7286662e-08
9.8552359e-08
9.5412338e-08
8.4309508e-08
9.7433934e-08
8.6980645e-08
9.2299761e-08
7.9677465e-08
1.6214252e-07
1.147894e-07
1.1698853e-07
1.1020916e-07
1.1539115e-07
1.096815e-07
1.1626569e-07
1.1014555e-07
9.7582516e-08
7.3150611e-08
1.0346754e-07
7.1504574e-08
1.2774228e-07
7.5136455e-08
1.0100589e-07
8.8927278e-08
1.1246638e-07
1.0044574e-07
7.9124455e-08
8.0890299e-08
1.5862215e-07
1.0876203e-07
1.24775e-07
1.2341525e-07
1.2350642e-07
1.3001937e-07
1.2750083e-07
1.2838055e-07
1.1494793e-07
9.3890511e-08
9.4851437e-08
6.5518334e-08
7.0508856e-08
8.5885818e-08
9.2869546e-08
8.1819056e-08
9.5624735e-08
7.0095052e-08
9.6449515e-08
7.7184844e-08
1.5840318e-07
1.0339082e-07
1.1135652e-07
1.118551e-07
1.0451276e-07
1.1378434e-07
1.1140638e-07
1.1325484e-07
1.2470696e-07
9.9837757e-08
1.1498755e-07
8.149558e-08
7.657042e-08
7.7841209e-08
9.0024306e-08
9.69218e-08
7.8807736e-08
8.8642226e-08
9.5047626e-08
7.5282324e-08
1.5230384e-07
9.8701728e-08
1.2740059e-07
1.2256735e-07
1.1781099e-07
1.1738553e-07
1.2093305e-07
1.0918748e-07
1.30854e-07
1.0754106e-07
9.1413481e-08
6.9054593e-08
1.0397825e-07
5.8943136e-08
1.1864602e-07
7.9534697e-08
9.8089834e-08
9.2443646e-08
9.3833415e-08
7.4138638e-08
1.4326586e-07
9.4705806e-08
1.3298526e-07
1.2253043e-07
1.2222987e-07
1.162948e-07
1.2439629e-07
1.0909476e-07
1.1500843e-07
1.2870752e-07
1.1258866e-07
6.9907964e-08
7.9851101e-08
9.3923131e-08
7.5671809e-08
9.3740604e-08
7.7997701e-08
9.2333221e-08
4.9313437e-08
7.8401999e-08
1.361433e-07
9.0873462e-08
1.3592011e-07
1.250613e-07
1.1422666e-07
1.2403188e-07
1.238592e-07
1.2069012e-07
1.1944846e-07
1.1226472e-07
1.1296662e-07
1.063029e-07
8.4101826e-08
1.0829963e-07
8.3170546e-08
9.5986881e-08
8.1662374e-08
9.7080689e-08
7.4285201e-08
4.8815851e-08
1.2509312e-07
8.7236415e-08
1.2487301e-07
1.1258819e-07
1.0855404e-07
1.124572e-07
1.1318847e-07
1.1200804e-07
1.093092e-07
1.1129742e-07
1.1046637e-07
1.0556669e-07
9.469986e-08
1.0689935e-07
9.3448789e-08
1.0415414e-07
9.6253818e-08
7.8901331e-08
7.2309553e-08
6.9363052e-08
1.1680784e-07
8.3782243e-08
1.3123173e-07
1.2992532e-07
1.1906793e-07
1.2748262e-07
1.2485685e-07
1.2808586e-07
1.2402336e-07
1.2432164e-07
1.1323465e-07
1.1953977e-07
1.0759565e-07
1.138989e-07
1.0204513e-07
1.029984e-07
1.0423054e-07
9.4072528e-08
1.1176518e-07
7.2215914e-08
1.0728457e-07
8.0362753e-08
1.3457605e-07
1.2929702e-07
1.1670169e-07
1.2926608e-07
1.267278e-07
1.2693774e-07
1.252605e-07
1.2738718e-07
1.2312077e-07
1.2211287e-07
1.1425717e-07
1.0850735e-07
1.0641607e-07
1.0177402e-07
1.0473735e-07
8.7825991e-08
1.0975819e-07
7.3898674e-08
9.7361509e-08
7.5542422e-08
1.3354977e-07
1.3006861e-07
1.1939515e-07
1.2720317e-07
1.2642659e-07
1.2570619e-07
1.2446366e-07
1.187844e-07
1.2344139e-07
1.2072848e-07
1.1876984e-07
1.1064232e-07
1.1835881e-07
9.6786093e-08
1.1427261e-07
8.6262486e-08
1.0356634e-07
7.2278506e-08
8.9411127e-08
7.0932851e-08
1.2459506e-07
1.3116897e-07
1.1876574e-07
1.3106176e-07
1.2890773e-07
1.3014051e-07
1.3130645e-07
1.2955273e-07
1.2855676e-07
1.2543831e-07
1.2183204e-07
1.1477827e-07
1.1707377e-07
1.0473455e-07
1.0474271e-07
9.935487e-08
9.4260135e-08
7.2662315e-08
8.2027208e-08
6.5388035e-08
1.2972395e-07
1.2875128e-07
1.2346312e-07
1.3114993e-07
1.2790098e-07
1.2983294e-07
1.3100208e-07
1.3066196e-07
1.2997592e-07
1.2515903e-07
1.2469387e-07
1.1986539e-07
1.1646786e-07
1.1148093e-07
1.0804802e-07
9.8570661e-08
1.0271712e-07
7.0684585e-08
7.6736075e-08
5.876683e-08
1.2374503e-07
1.2979725e-07
1.1932105e-07
1.2953676e-07
1.2720459e-07
1.2491491e-07
1.2581172e-07
1.2832209e-07
1.3163801e-07
1.230023e-07
1.2168481e-07
1.191837e-07
1.1304698e-07
1.0716318e-07
1.0698335e-07
9.4489641e-08
1.0107381e-07
6.9798629e-08
7.1882697e-08
5.1306976e-08
1.1848102e-07
1.3291301e-07
1.2591487e-07
1.3493223e-07
1.3274364e-07
1.3259205e-07
1.3474654e-07
1.3406843e-07
1.3595963e-07
1.346663e-07
1.3259801e-07
1.3159817e-07
1.2915246e-07
1.2213494e-07
1.2446224e-07
1.1194234e-07
1.2111724e-07
7.1024578e-08
6.7045842e-08
4.3331047e-08
1.1203544e-07
1.2758979e-07
1.2202443e-07
1.2793715e-07
1.2496297e-07
1.2502107e-07
1.2359988e-07
1.1950546e-07
1.1766229e-07
1.1483334e-07
1.0899483e-07
1.0323793e-07
9.9012466e-08
9.6213688e-08
9.160755e-08
8.4983711e-08
8.6603685e-08
7.0261418e-08
6.474541e-08
5.4191969e-06
1.7354579e-06
2.4121399e-07
5.2296248e-08
4.1764888e-08
4.0915753e-08
4.428073e-08
4.6125251e-08
4.3359516e-08
5.3369238e-08
4.3705326e-08
6.4757119e-08
4.4450871e-08
7.7620879e-08
4.9773006e-08
8.2750708e-08
3.7889031e-08
3.5719897e-08
7.0589566e-08
2.8324321e-07
2.1094393e-06
1.0424301e-06
8.5902578e-08
4.4238798e-08
4.3363976e-08
4.4865115e-08
4.3904378e-08
4.6480387e-08
4.2324122e-08
5.1059749e-08
4.2029205e-08
5.5691388e-08
4.4290186e-08
5.9757304e-08
4.025467e-08
5.9311018e-08
4.4752234e-08
3.5320548e-08
1.8869766e-08
3.0042284e-07
5.5852763e-07
2.5313651e-07
6.6066653e-08
5.6174519e-08
5.2730423e-08
5.319999e-08
5.3665468e-08
5.4565706e-08
4.7140694e-08
5.4616828e-08
4.7427509e-08
4.9412378e-08
5.0524437e-08
4.3525351e-08
5.1449647e-08
3.9064131e-08
4.629039e-08
2.979845e-08
4.6414063e-08
3.0340108e-07
2.8909728e-07
8.294349e-08
6.3121946e-08
6.5076924e-08
6.028896e-08
6.3253677e-08
5.4462842e-08
6.20615e-08
5.6366304e-08
5.190784e-08
5.9839537e-08
4.9073268e-08
5.6961206e-08
4.2834284e-08
5.1277085e-08
3.9144584e-08
4.4608443e-08
3.589532e-08
2.192512e-08
2.8913515e-07
2.3105734e-07
7.0101611e-08
6.3393658e-08
6.8224262e-08
6.6264222e-08
6.6125028e-08
5.6566369e-08
6.7382639e-08
5.9246638e-08
6.1953957e-08
6.1686644e-08
5.4198891e-08
6.2275609e-08
4.7756106e-08
4.9771503e-08
5.0983359e-08
4.858796e-08
3.6862636e-08
6.3418753e-08
2.3595269e-07
1.9399663e-07
7.3274386e-08
6.7369868e-08
7.3443051e-08
6.847703e-08
7.2411776e-08
6.5138784e-08
7.3318237e-08
6.765956e-08
6.2626916e-08
6.8808217e-08
5.2408656e-08
7.5080124e-08
4.7813664e-08
6.3300162e-08
4.4703355e-08
5.447681e-08
3.5658291e-08
6.6581253e-08
2.038262e-07
1.595478e-07
8.2141703e-08
7.5425039e-08
8.477248e-08
7.9137202e-08
7.7176901e-08
7.0135474e-08
8.626558e-08
6.7265527e-08
7.0882898e-08
7.1083316e-08
6.10143e-08
7.9226943e-08
4.8873775e-08
6.9365746e-08
5.1517819e-08
5.7618278e-08
4.6332739e-08
6.47097e-08
1.6969793e-07
1.3805997e-07
8.9123593e-08
7.9045009e-08
9.3362709e-08
7.3318233e-08
8.135527e-08
7.3979982e-08
9.0972408e-08
7.6424827e-08
7.6179654e-08
1.1175287e-07
6.6689243e-08
9.781327e-08
5.0644921e-08
7.4956127e-08
5.361049e-08
6.5502201e-08
4.2583861e-08
6.5301366e-08
1.5972283e-07
1.2384118e-07
1.0043545e-07
9.8318751e-08
1.0133424e-07
8.2592009e-08
8.7694177e-08
8.1970634e-08
9.1780495e-08
7.8313208e-08
7.1358614e-08
8.0645881e-08
7.4474777e-08
7.2622339e-08
6.641307e-08
6.1145809e-08
6.5289586e-08
6.2966536e-08
6.1102461e-08
7.2593484e-08
1.3232957e-07
1.1621831e-07
9.8949192e-08
9.9449469e-08
1.0139231e-07
8.9636487e-08
8.2089127e-08
8.3526804e-08
8.586491e-08
8.0590829e-08
8.0287751e-08
8.0456053e-08
9.2476495e-08
7.4276044e-08
7.9772405e-08
7.7151658e-08
6.8527561e-08
6.8587744e-08
7.1545945e-08
8.1263479e-08
1.3946972e-07
1.1766197e-07
1.0891881e-07
1.0340922e-07
1.0715825e-07
9.995877e-08
9.7791707e-08
7.5728175e-08
8.4659673e-08
9.484533e-08
7.3871987e-08
8.4338469e-08
1.0185818e-07
7.19359e-08
8.6900459e-08
7.4841625e-08
8.3489011e-08
6.9315825e-08
7.1935488e-08
7.1164545e-08
1.4351569e-07
1.2260703e-07
1.1411395e-07
1.0956686e-07
1.0877356e-07
1.0394448e-07
1.1063131e-07
8.595811e-08
8.392921e-08
8.3644897e-08
8.0675705e-08
9.0273909e-08
1.1083873e-07
8.4760886e-08
8.6192662e-08
8.7753319e-08
7.6954528e-08
8.2743335e-08
7.4618372e-08
8.6423547e-08
1.5631898e-07
1.273239e-07
1.1054989e-07
1.0955249e-07
1.1048663e-07
1.0459159e-07
1.0425258e-07
8.4956855e-08
7.9232234e-08
7.7580286e-08
1.0036242e-07
8.548832e-08
1.0885522e-07
8.2672144e-08
1.1465522e-07
8.5182187e-08
1.0198893e-07
8.3250471e-08
9.2122865e-08
6.9763842e-08
1.6108569e-07
1.2828151e-07
1.0744998e-07
1.0849816e-07
1.114079e-07
1.0730685e-07
1.0675291e-07
1.0307334e-07
7.1973397e-08
7.3240787e-08
1.9359078e-07
7.4296598e-08
7.6715063e-08
1.1017596e-07
1.086665e-07
1.0167451e-07
9.9543777e-08
8.4476879e-08
9.9386557e-08
7.2288579e-08
1.6454815e-07
1.2603694e-07
1.232842e-07
9.4146974e-08
1.1346591e-07
1.0595259e-07
1.0934052e-07
1.0127616e-07
1.2498596e-07
7.3816194e-08
1.4103763e-07
6.141677e-08
8.9720352e-08
7.7469385e-08
1.1009584e-07
8.9971649e-08
1.1071605e-07
8.5875671e-08
7.7907399e-08
7.6899787e-08
1.6981717e-07
1.2087305e-07
1.2039962e-07
1.1999744e-07
1.1861786e-07
1.1849951e-07
1.216851e-07
1.1530516e-07
1.038357e-07
9.1993986e-08
8.8085348e-08
8.4649852e-08
4.9207585e-08
1.0299197e-07
7.5449944e-08
1.0212037e-07
9.5572673e-08
1.0511985e-07
9.0141949e-08
8.2268837e-08
1.652246e-07
1.1393961e-07
1.0731078e-07
1.1604482e-07
1.150323e-07
1.1152536e-07
1.1817713e-07
1.1756471e-07
1.2602268e-07
9.5204075e-08
1.079449e-07
1.1403308e-07
5.8520976e-08
8.2565591e-08
8.9120075e-08
9.0110593e-08
7.6349763e-08
9.550983e-08
8.4097093e-08
7.8606923e-08
1.6284398e-07
1.0977603e-07
1.2549998e-07
1.1104854e-07
1.1184238e-07
1.0925968e-07
1.0586807e-07
1.0635307e-07
1.0935642e-07
1.0047484e-07
1.1634709e-07
1.1217676e-07
6.8903453e-08
7.4570723e-08
7.9996329e-08
9.3461287e-08
9.8104555e-08
7.5966387e-08
8.4265234e-08
7.8282226e-08
1.597582e-07
1.0346433e-07
1.3087092e-07
1.1700826e-07
1.1405498e-07
1.1618776e-07
1.2272973e-07
1.1209819e-07
1.1919626e-07
1.0064515e-07
9.0618022e-08
7.9091487e-08
8.0610996e-08
6.4658082e-08
9.1999091e-08
8.8950008e-08
1.1632728e-07
1.0982967e-07
8.5080071e-08
7.1983778e-08
1.5031512e-07
9.9274533e-08
1.2908078e-07
1.1332651e-07
1.114311e-07
1.1244315e-07
1.1114513e-07
1.0913188e-07
1.1881447e-07
1.0697596e-07
1.0580189e-07
7.4262293e-08
9.8686374e-08
8.2109224e-08
8.9156994e-08
7.3251471e-08
1.052379e-07
9.3792513e-08
9.7817164e-08
8.0059913e-08
1.3930658e-07
9.6025655e-08
1.3621977e-07
1.2672677e-07
1.2192268e-07
1.2291614e-07
1.2240567e-07
1.2194905e-07
1.2716426e-07
1.1847717e-07
1.2594509e-07
8.4439734e-08
1.4161478e-07
6.7637843e-08
1.3827652e-07
8.0335507e-08
6.4503182e-08
5.9757803e-08
1.052984e-07
8.2623735e-08
1.3132432e-07
9.2626144e-08
1.3256386e-07
1.21917e-07
1.1816972e-07
1.2238165e-07
1.1986663e-07
1.2466014e-07
1.263454e-07
1.2510247e-07
1.4337539e-07
1.0467825e-07
1.2587048e-07
9.8966331e-08
1.0762801e-07
1.3032135e-07
9.9785731e-08
8.0013974e-08
1.0032341e-07
5.9581673e-08
1.2084525e-07
8.8566765e-08
1.4316163e-07
1.2856813e-07
1.1932186e-07
1.277967e-07
1.2507426e-07
1.2673576e-07
1.2309455e-07
1.2107346e-07
1.1778133e-07
1.1752071e-07
1.1011642e-07
1.1662898e-07
9.2241191e-08
1.1299586e-07
9.808756e-08
8.8307929e-08
7.8011092e-08
7.4781297e-08
1.1079061e-07
8.5285917e-08
1.4130275e-07
1.2858627e-07
1.1666812e-07
1.2832264e-07
1.2619036e-07
1.2626834e-07
1.2335535e-07
1.2024841e-07
1.2936229e-07
1.2704777e-07
1.2046169e-07
1.169757e-07
1.1846611e-07
9.6567841e-08
1.1539271e-07
9.1131754e-08
1.0654168e-07
6.1962807e-08
1.0114541e-07
8.056362e-08
1.3477236e-07
1.3087207e-07
1.1725699e-07
1.274614e-07
1.2494412e-07
1.247899e-07
1.2347501e-07
1.1920445e-07
1.2299314e-07
1.2509846e-07
1.2392178e-07
1.1972015e-07
1.2831052e-07
1.0983228e-07
1.1487904e-07
9.7525324e-08
1.0118003e-07
7.5003462e-08
9.3344899e-08
7.5672214e-08
1.3830007e-07
1.3007819e-07
1.2034811e-07
1.3035006e-07
1.3110975e-07
1.3029811e-07
1.3009845e-07
1.3195914e-07
1.2285926e-07
1.259951e-07
1.2114106e-07
1.1801499e-07
1.1623477e-07
1.1151473e-07
1.0634217e-07
1.0224146e-07
1.0766816e-07
7.4140365e-08
8.6523248e-08
7.003506e-08
1.3569384e-07
1.292474e-07
1.1958143e-07
1.307093e-07
1.2862414e-07
1.294723e-07
1.2882534e-07
1.2926674e-07
1.3322069e-07
1.2999428e-07
1.2299351e-07
1.2207264e-07
1.1813338e-07
1.1241093e-07
1.1180828e-07
9.6586876e-08
1.0570653e-07
7.2913502e-08
8.056405e-08
6.3688464e-08
1.3445446e-07
1.315083e-07
1.193018e-07
1.3135591e-07
1.292493e-07
1.2947217e-07
1.3266184e-07
1.3202862e-07
1.2384476e-07
1.2655772e-07
1.2357537e-07
1.168633e-07
1.1376995e-07
1.0698967e-07
1.0605208e-07
9.5281522e-08
9.8933295e-08
7.2232021e-08
7.641154e-08
5.6719548e-08
1.2600879e-07
1.407226e-07
1.3145597e-07
1.4028986e-07
1.3590491e-07
1.3382288e-07
1.3166722e-07
1.3405681e-07
1.3275397e-07
1.3270196e-07
1.3332908e-07
1.2921954e-07
1.259361e-07
1.2365459e-07
1.2415326e-07
1.1154989e-07
1.2383136e-07
7.1456049e-08
7.2025006e-08
4.9777605e-08
1.2005434e-07
1.2588649e-07
1.1928283e-07
1.2629696e-07
1.2515731e-07
1.2436471e-07
1.2203154e-07
1.2061987e-07
1.1961293e-07
1.1386061e-07
1.0886453e-07
1.0162953e-07
9.3932502e-08
8.6209393e-08
8.1795942e-08
7.7615457e-08
7.8281575e-08
7.2679086e-08
7.3599538e-08
5.3643686e-06
1.7270513e-06
2.5822557e-07
5.2975274e-08
4.1808465e-08
4.4729219e-08
4.2889308e-08
5.0364009e-08
4.5920289e-08
5.4265172e-08
4.2959109e-08
7.0592685e-08
4.1344721e-08
8.3158721e-08
4.9937871e-08
8.2682538e-08
3.5924145e-08
4.0488948e-08
7.4190208e-08
2.7437647e-07
2.0766469e-06
1.138434e-06
8.6370115e-08
4.1701344e-08
4.2603353e-08
4.2062551e-08
4.567642e-08
4.6290452e-08
4.466248e-08
5.093665e-08
4.2944951e-08
5.4133071e-08
3.7238174e-08
6.5978484e-08
3.7624841e-08
6.3322335e-08
2.6794346e-08
2.5646219e-08
3.4482109e-08
2.8842187e-07
5.6403008e-07
2.5373466e-07
6.5367757e-08
5.9334391e-08
5.7847842e-08
5.6186814e-08
5.4392508e-08
5.6677102e-08
5.2661045e-08
5.8797607e-08
4.8685757e-08
4.5357451e-08
5.4427853e-08
4.3469283e-08
5.0752281e-08
3.6743695e-08
4.1401921e-08
3.1834863e-08
4.244093e-08
2.9783109e-07
2.9737342e-07
8.546183e-08
6.579071e-08
6.8516485e-08
6.3522849e-08
6.6410954e-08
5.8310267e-08
6.3792478e-08
5.69006e-08
5.5046894e-08
5.8318511e-08
4.9378774e-08
6.4021946e-08
4.3473393e-08
6.5347586e-08
3.3222704e-08
4.3770602e-08
3.4800667e-08
4.9437704e-08
2.7618209e-07
2.4159591e-07
6.9772551e-08
6.8972037e-08
6.9551697e-08
6.6029257e-08
6.953495e-08
5.7556962e-08
6.4329384e-08
6.6195887e-08
6.1270533e-08
6.7093559e-08
5.1593456e-08
6.0818441e-08
5.1594033e-08
4.8353545e-08
4.4638619e-08
4.3875808e-08
3.7679919e-08
2.3373643e-08
2.6828875e-07
2.0262462e-07
7.3165908e-08
7.4919419e-08
7.7344329e-08
7.0036503e-08
7.5290641e-08
6.4346139e-08
6.7788866e-08
6.1585788e-08
6.7266449e-08
6.7302236e-08
6.1176461e-08
6.0181144e-08
5.8410275e-08
5.3831085e-08
5.4602332e-08
4.7594328e-08
4.4639679e-08
8.5836768e-08
2.0681124e-07
1.7494592e-07
7.2711183e-08
8.8385069e-08
8.5541067e-08
8.4902748e-08
8.5442064e-08
6.7545186e-08
6.7003436e-08
6.953877e-08
5.9225685e-08
7.8062922e-08
6.8172786e-08
6.4832757e-08
6.7598857e-08
5.8505921e-08
5.53229e-08
5.2972819e-08
3.7617576e-08
6.8746922e-08
1.8240401e-07
1.5349243e-07
8.6023368e-08
9.3269163e-08
9.3802572e-08
8.8779417e-08
1.041631e-07
7.51114e-08
9.284881e-08
8.0101104e-08
6.6853137e-08
9.2857602e-08
6.3872018e-08
8.5862905e-08
5.6065481e-08
7.3300122e-08
6.0519155e-08
7.4405127e-08
6.0784618e-08
8.5357421e-08
1.6230137e-07
1.4007182e-07
8.8044402e-08
9.2202432e-08
9.5506293e-08
9.1168273e-08
9.3920835e-08
7.5014394e-08
8.1885284e-08
7.9637996e-08
6.8345288e-08
1.0154826e-07
6.8694802e-08
8.1903215e-08
6.3183002e-08
7.5583576e-08
5.4756741e-08
7.6955674e-08
5.1651133e-08
7.006301e-08
1.5255963e-07
1.3332052e-07
9.6756017e-08
9.6887269e-08
1.0471518e-07
1.0129385e-07
9.1644973e-08
8.6187844e-08
8.1822773e-08
8.3193633e-08
8.8024962e-08
8.5799979e-08
8.086371e-08
7.1658243e-08
8.6529846e-08
6.1658208e-08
7.5498037e-08
5.5641222e-08
6.4296508e-08
8.1344398e-08
1.5022091e-07
1.3246456e-07
1.0596052e-07
1.0755859e-07
1.0597747e-07
1.123894e-07
9.920742e-08
7.6392755e-08
9.0230393e-08
1.0534554e-07
6.949954e-08
1.0596e-07
8.6443069e-08
7.3829009e-08
9.5143486e-08
7.9269081e-08
8.3958758e-08
7.4464963e-08
6.6193776e-08
8.1992593e-08
1.6141461e-07
1.3780762e-07
1.2053308e-07
1.1839733e-07
1.1945215e-07
1.1658897e-07
1.1798129e-07
8.7950058e-08
8.5746457e-08
8.3976841e-08
7.8228992e-08
9.3000857e-08
8.56896e-08
8.9149712e-08
8.2469049e-08
9.4421738e-08
7.9529067e-08
8.9650799e-08
7.7934384e-08
7.7818233e-08
1.6677493e-07
1.4329271e-07
1.1786492e-07
1.2133274e-07
1.2032598e-07
1.167964e-07
1.2000072e-07
1.0834545e-07
8.3175853e-08
9.4128175e-08
8.275965e-08
1.14838e-07
9.040769e-08
8.3536528e-08
9.9636767e-08
9.4156189e-08
9.5573663e-08
8.0149448e-08
8.5490825e-08
7.9639697e-08
1.7103057e-07
1.4241774e-07
1.2521668e-07
1.2470985e-07
1.24031e-07
1.2503233e-07
1.2360692e-07
1.0257583e-07
1.1920761e-07
7.3869442e-08
1.1143909e-07
7.6554518e-08
9.590337e-08
7.9092648e-08
1.0289695e-07
9.647271e-08
1.0073643e-07
9.4497497e-08
7.3268766e-08
8.181363e-08
1.7810732e-07
1.3753339e-07
1.3042181e-07
1.2804873e-07
1.2566608e-07
1.2690911e-07
1.2676774e-07
1.1198509e-07
1.1948853e-07
1.0155166e-07
6.6122819e-08
8.215067e-08
7.5707902e-08
9.9427007e-08
8.3748646e-08
9.1915234e-08
9.860716e-08
8.4201445e-08
1.0423109e-07