/*--------------------------------*- C++ -*----------------------------------*\
| =========                 |                                                 |
| \\      /  F ield         | OpenFOAM: The Open Source CFD Toolbox           |
|  \\    /   O peration     | Version:  1.7.x                                 |
|   \\  /    A nd           | Web:      www.OpenFOAM.com                      |
|    \\/     M anipulation  |                                                 |
\*---------------------------------------------------------------------------*/
FoamFile
{
    version     2.0;
    format      ascii;
    class       volScalarField;
    location    "0.0015";
    object      H2O;
}
// * * * * * * * * * * * * * * * * * * * * * * * * * * * * * * * * * * * * * //

dimensions      [0 0 0 0 0 0 0];

internalField   nonuniform List<scalar> 
206988
(
7.6702299e-120
9.8382428e-121
9.0343822e-120
7.0568102e-120
1.8691388e-119
3.7588488e-118
3.8549775e-118
2.2799723e-118
6.8212744e-119
5.5773301e-117
4.4073193e-117
1.1014921e-117
5.434732e-118
2.4661655e-118
2.8437374e-118
4.0777995e-118
5.1185297e-118
9.3512921e-120
4.020985e-121
7.6312195e-122
6.9989269e-121
1.3347166e-121
1.1865529e-120
2.4957654e-120
1.5425459e-120
5.2898226e-119
3.9331623e-119
2.7305816e-119
1.5376053e-119
1.155747e-117
1.0408544e-117
2.8975996e-118
2.028142e-118
3.3406776e-119
1.9747669e-119
2.2532803e-119
2.4621399e-119
2.8165741e-120
2.5533933e-121
8.1404704e-122
5.3383759e-122
1.0868611e-122
1.3823318e-121
3.1090735e-121
1.5041853e-121
6.5509449e-120
2.9315687e-120
2.4227549e-120
3.8651072e-120
1.4749539e-118
1.2092082e-118
4.2498909e-119
4.3689592e-119
4.6363656e-120
2.1462552e-120
2.4285233e-120
1.7479291e-120
1.5030994e-120
3.6936697e-120
2.4624774e-121
3.9560636e-123
7.6225922e-124
8.4027902e-123
1.9593732e-122
1.7307076e-122
6.1486873e-121
2.4936079e-121
1.460305e-121
3.9890524e-121
1.0389667e-119
1.1870694e-119
6.1791983e-120
7.9380694e-120
1.5522907e-119
3.553617e-120
1.9776826e-121
2.6859146e-121
1.1760103e-120
4.2895472e-120
1.8541159e-121
2.2075435e-124
5.7811661e-124
1.1503952e-123
3.2043139e-123
6.2257933e-124
4.0100879e-122
9.1221839e-123
6.30994e-123
3.0812547e-122
4.15776e-121
5.5066494e-121
3.9349903e-121
1.1450368e-120
1.1757166e-119
2.8328568e-120
7.7255909e-122
1.4791648e-121
6.256494e-121
1.9858418e-120
6.6558517e-122
1.7541703e-124
6.0680732e-124
2.082429e-124
1.0183181e-123
3.0983989e-124
1.9625076e-123
4.6382606e-125
6.7140879e-124
2.1278139e-123
1.6430038e-122
2.7501922e-122
4.1886439e-122
2.4487338e-121
2.6894935e-120
7.9449977e-121
1.1059298e-121
5.667518e-122
1.7746942e-121
4.8625448e-121
2.1626338e-122
1.9386303e-125
1.3195948e-125
7.80091e-125
2.6508548e-124
9.576689e-124
2.1983774e-124
1.8243489e-124
1.4175016e-122
6.2792535e-122
1.764261e-123
2.0774258e-123
2.1242132e-123
2.9800233e-122
3.0325605e-121
1.1168191e-121
2.9336634e-122
1.230967e-122
5.0198156e-122
1.2127867e-121
4.5740634e-123
6.229167e-126
7.24299e-126
5.4633011e-125
4.550931e-125
2.6581861e-124
4.4942082e-124
1.0274401e-122
1.1420302e-122
7.8272048e-122
6.3166345e-123
5.2252549e-124
4.4923603e-124
2.6650891e-123
2.5254262e-122
1.669604e-122
1.2585214e-122
4.3823416e-123
2.2892906e-122
2.8531356e-122
9.64446e-124
9.6537366e-127
2.3767388e-126
2.240452e-125
2.6595726e-125
8.0720482e-125
2.6262732e-124
6.0560587e-123
4.8492447e-123
5.489206e-122
3.9868413e-123
1.5515811e-124
2.6320841e-124
6.4960081e-124
2.0410563e-123
4.12566e-123
6.0477368e-123
1.047947e-123
8.3517662e-123
3.5383355e-123
1.6350366e-124
8.2318381e-128
3.2348041e-127
6.4152241e-126
1.275048e-125
9.6858069e-126
7.9369715e-125
1.3473894e-123
1.6209734e-123
1.8726375e-122
1.1166369e-123
2.8064971e-125
9.6807905e-125
1.390057e-124
2.2399073e-124
1.7201465e-123
2.9439084e-123
2.5646724e-124
2.3952967e-123
4.608004e-124
3.0099645e-125
4.8783594e-129
5.9216885e-128
1.8160123e-126
3.2086421e-126
1.6788697e-126
2.1771015e-125
3.2384527e-124
3.7897228e-124
2.9653425e-123
1.4293977e-124
2.8586741e-126
1.7360942e-125
3.7374435e-125
3.3363844e-125
4.7396158e-124
9.966357e-124
6.6838899e-125
4.9650189e-124
4.4759376e-125
5.3661548e-126
5.8048217e-129
2.971714e-128
5.0147134e-127
8.8754157e-127
2.8526445e-127
4.6582387e-126
3.5313296e-125
4.1691256e-125
2.6671921e-124
1.1398256e-125
1.7052593e-126
2.4056321e-126
8.5099828e-126
4.7160666e-126
7.2998756e-125
1.8004335e-124
1.6048527e-125
7.9646929e-125
5.6052194e-126
1.038803e-126
2.4381045e-129
1.1081122e-128
2.1063117e-127
2.6513738e-127
7.2583366e-128
5.1539059e-127
5.4527994e-126
9.3030806e-126
2.3197575e-125
1.7373205e-126
1.0250038e-126
3.2455755e-127
1.4864844e-126
1.0115066e-126
1.543079e-125
4.2880811e-125
4.1135834e-126
1.0713985e-125
7.8576468e-127
2.2793452e-127
3.9522302e-130
3.4174954e-129
1.0483261e-127
2.4151547e-127
4.0990007e-127
9.0651536e-127
2.443199e-125
1.2906573e-125
2.3039158e-126
1.0946166e-126
1.592803e-126
4.6848186e-128
1.8207977e-127
2.6260136e-127
3.7870532e-126
8.9783863e-126
6.589426e-127
1.1172784e-126
8.6736934e-128
4.509332e-128
1.2806775e-130
2.4552647e-129
1.4565637e-128
7.9606544e-128
5.8886049e-127
3.9607794e-127
1.1971891e-125
1.0777376e-125
3.1924254e-127
7.4236886e-127
3.9046511e-126
3.2929448e-127
1.290515e-127
2.1305888e-127
2.5658672e-126
5.0245027e-126
1.701646e-127
1.6453324e-127
8.5738006e-129
8.1512244e-129
2.4695161e-130
1.2674392e-129
1.178642e-129
1.1106263e-128
1.8219592e-127
1.1087515e-127
2.4481959e-126
2.9691119e-126
3.1606963e-127
6.9872297e-127
1.6382732e-126
2.9229974e-126
9.0613834e-127
1.0346512e-126
5.4536186e-126
2.3254736e-126
4.0517317e-127
2.892197e-128
4.4049073e-129
3.0353305e-129
5.8179041e-131
1.6620974e-130
5.4520443e-130
1.3023877e-129
2.7740715e-128
3.3138437e-128
4.0135653e-127
6.8822006e-127
5.45718e-127
3.9119876e-127
2.3379878e-127
1.2665452e-126
5.0456819e-127
2.0591286e-126
5.3360029e-125
8.3531301e-127
2.2275593e-127
1.4645167e-128
2.0430361e-129
1.1346846e-129
1.0064611e-131
3.259525e-131
4.0611347e-130
1.2991516e-130
1.9480881e-129
8.4067634e-129
2.3774813e-127
2.1866022e-127
1.151368e-126
1.7501969e-127
9.4702247e-128
5.6945113e-127
3.4931209e-127
1.1391974e-126
2.6604005e-125
2.2512724e-127
5.6720908e-128
9.8368061e-128
4.2593747e-129
3.8589395e-130
2.0378197e-132
2.2492287e-131
6.4497899e-130
6.6651489e-130
3.868941e-130
2.0102111e-128
9.7729199e-127
4.9080899e-128
3.9622661e-127
5.9101134e-128
1.096192e-127
2.3155406e-126
5.1861125e-126
4.6980844e-127
9.2030081e-126
5.4849727e-127
6.5655234e-128
2.7521497e-127
2.630466e-128
3.1846298e-130
4.146539e-132
1.9686924e-130
9.9804842e-129
2.5685961e-129
5.4825686e-129
1.5864274e-127
2.4958551e-127
2.1319307e-127
6.4810371e-128
1.1782834e-128
6.43354e-128
2.6309699e-126
3.669261e-125
6.2023092e-127
2.3579024e-126
3.0786449e-127
5.2877138e-128
3.2006855e-127
1.3211229e-127
1.9051843e-129
7.3268836e-131
3.389117e-129
1.8437109e-127
8.3746695e-129
1.3547962e-127
2.2822597e-127
2.5274877e-128
5.6137922e-128
2.8776502e-127
1.2952737e-127
5.118502e-127
1.4567043e-126
3.7588279e-125
3.6429047e-126
6.4075307e-127
6.4576188e-128
1.2358875e-128
1.6601376e-127
3.4540642e-128
4.459553e-130
2.069096e-131
1.4097603e-129
7.1669372e-128
1.3500113e-127
2.5581472e-126
3.711897e-126
1.6074896e-128
6.0548923e-129
9.4981642e-128
2.0466917e-126
6.066948e-126
4.971946e-127
1.0819785e-125
3.6181909e-126
3.2472076e-126
4.3114934e-128
2.7695145e-129
2.3164813e-128
2.8740473e-129
4.8108496e-131
1.1657705e-131
1.4901366e-130
6.7769594e-129
3.0053447e-128
5.9494429e-127
7.2400794e-127
4.013348e-128
9.350092e-129
1.1454076e-127
2.7531159e-126
4.7429237e-126
1.0836342e-127
9.8348416e-127
1.4634446e-126
1.101826e-126
2.6171292e-128
1.2358511e-128
5.5551907e-129
2.0945087e-130
8.4641744e-131
1.5321961e-132
2.0175077e-131
6.8419617e-130
2.0856868e-129
3.4651947e-128
4.2358262e-128
4.3608536e-128
1.2157993e-127
2.826022e-128
5.8694034e-127
8.6564079e-127
4.4986114e-128
8.6142741e-128
2.8953434e-127
1.4698131e-127
3.3129149e-129
4.2471853e-129
6.5267098e-129
1.1637359e-130
2.5897677e-131
1.4074513e-133
4.5767679e-132
4.9541506e-131
8.736513e-131
2.0771085e-129
3.2003729e-129
9.9971915e-129
2.760797e-128
3.3180543e-129
6.6327209e-128
9.373671e-128
7.8910339e-129
6.2939659e-129
5.1033301e-128
2.0334812e-128
1.8322822e-129
7.6303663e-129
1.9021434e-129
2.7738074e-131
4.2753575e-132
2.5219105e-134
1.4267717e-132
8.5075161e-132
9.4826182e-132
8.2106397e-131
1.8871851e-130
2.261868e-129
2.7115942e-129
8.0793183e-130
1.2613015e-128
2.6169136e-128
5.2237056e-129
3.4247452e-129
1.6170745e-128
1.3519085e-129
1.7913335e-130
1.6167358e-129
1.6532353e-130
2.890001e-132
4.9233852e-133
3.1233855e-133
1.0842437e-132
2.3779206e-132
2.1659599e-132
8.5067956e-131
2.9921448e-131
1.333406e-130
2.4335907e-129
1.462902e-128
2.0932038e-128
5.2328897e-128
1.3834894e-129
1.4671258e-129
2.400272e-129
7.5065809e-130
6.7125454e-131
4.6600763e-130
3.2036046e-131
2.10068e-132
6.6765224e-134
1.9424658e-134
2.5313905e-133
2.2782985e-133
2.5081714e-131
7.7126353e-130
8.5824569e-130
1.9778415e-131
6.5026104e-130
3.3900407e-128
3.257459e-129
4.8537638e-129
2.1762973e-130
1.2112005e-130
4.472543e-130
1.2981088e-130
1.3773431e-131
3.1842865e-131
2.3028002e-132
1.4953662e-133
5.1577771e-135
2.4031641e-133
1.5554818e-132
1.0019971e-133
1.7058357e-131
1.2884916e-129
1.0823041e-129
4.3396654e-131
3.1315766e-129
4.1964814e-128
4.7106036e-129
1.7006065e-129
2.5376329e-130
4.1388319e-130
1.253903e-129
1.3602076e-129
1.777848e-130
9.7862604e-132
2.4010702e-132
2.6949754e-133
1.7191545e-134
1.7180389e-133
3.1897676e-133
6.0862584e-134
4.239391e-132
3.1289187e-130
6.2639562e-130
1.9717552e-130
5.5930495e-130
2.4177781e-129
3.4581988e-130
1.2463641e-130
9.6441197e-131
1.8951669e-130
2.2572465e-129
1.794509e-129
1.2016862e-130
3.011799e-131
9.8941092e-132
2.2810233e-133
1.5255732e-134
6.7957923e-120
7.2327469e-120
1.7516931e-119
1.4194691e-117
5.402643e-118
1.785725e-118
0
0
1.2443196e-117
6.0779333e-117
2.487725e-116
7.7380942e-117
8.5169117e-118
2.9785283e-118
0
3.6091004e-118
2.0567959e-118
1.0423434e-118
8.3096206e-120
0
3.6135399e-121
5.3553626e-121
1.6433027e-120
2.1180096e-119
7.0717897e-120
1.2274812e-119
2.1799993e-120
3.3884612e-119
2.47588e-118
1.0864164e-117
3.721671e-117
1.1185197e-117
1.6437897e-118
6.9606581e-119
1.3338229e-118
8.8844374e-119
1.5622832e-119
4.1713599e-119
9.2854431e-120
7.7511582e-121
1.3799135e-122
4.3487688e-122
1.1901517e-121
1.5087739e-120
4.6779533e-121
8.7738851e-121
2.4801262e-120
8.5707126e-120
4.7960838e-119
1.4666295e-118
7.1827901e-118
1.7431324e-118
2.8142244e-119
2.4155876e-119
6.780414e-119
3.4204596e-119
7.6040402e-120
1.5805755e-119
2.9808858e-120
2.9229435e-121
4.6910653e-122
2.0565346e-123
6.6449549e-123
3.4609299e-122
8.5609922e-122
1.1640753e-121
3.1745804e-121
9.0673852e-121
4.0799333e-120
9.7611147e-120
8.589656e-119
1.482922e-119
1.606604e-120
7.602837e-121
2.7668355e-119
3.3708513e-119
3.4159053e-119
5.8467408e-120
8.5984115e-121
1.213476e-121
1.7525984e-122
2.3660458e-123
7.3687847e-122
4.9941036e-122
6.3184467e-122
1.8385131e-121
3.7007426e-122
1.2669315e-121
3.1980808e-121
7.6895732e-121
8.4811055e-120
1.4370373e-120
1.9576411e-120
7.5916767e-120
2.3359185e-119
2.2181981e-119
2.9102921e-119
2.8504226e-120
1.7220804e-121
5.9607594e-122
1.7305709e-123
1.8574843e-124
2.6847244e-122
1.6937083e-123
5.4944269e-123
6.786498e-122
1.1291239e-123
3.4710562e-122
8.3501559e-121
2.3152438e-121
1.1917555e-120
1.3621903e-120
5.7382296e-120
4.4343569e-120
6.2256438e-120
8.5476482e-120
1.178734e-119
1.2078876e-120
5.6532445e-122
4.3750878e-122
1.4577142e-124
4.249293e-124
1.7313865e-123
3.0272116e-123
2.317281e-123
1.8376343e-122
1.9885106e-122
1.2747714e-122
3.6485277e-121
5.8999557e-122
9.5186541e-122
8.2455982e-122
1.4391164e-121
8.177428e-121
8.9140526e-121
2.7406125e-120
2.6383929e-120
3.338956e-121
3.2589202e-122
3.0550131e-122
1.5002957e-125
2.6649001e-125
4.819433e-125
2.6723322e-124
5.1655646e-124
2.8506716e-123
2.8768346e-122
6.4188289e-123
1.0514673e-121
8.5186047e-123
1.2336061e-122
7.7863685e-123
2.8592086e-123
1.9133478e-121
1.1419984e-121
6.879549e-121
4.5952224e-121
6.6772602e-122
2.4703684e-122
1.4536133e-122
1.7718463e-126
2.0748282e-126
2.7848207e-126
4.3347178e-125
9.7876174e-125
5.1570892e-124
9.2599674e-123
5.4325521e-123
5.3932009e-122
1.4491237e-123
2.3342836e-123
1.7829537e-122
1.5029848e-122
7.1504722e-122
1.7895674e-122
1.4751627e-121
6.991173e-122
1.2022432e-122
1.0728634e-122
4.9153393e-123
3.158382e-127
6.3734153e-127
9.2165784e-127
3.9135971e-126
8.758369e-126
4.0097173e-125
1.0031489e-123
2.2188641e-123
1.9277234e-122
2.2949092e-124
4.7326857e-124
7.3319942e-123
6.9906149e-123
1.8012981e-122
4.073413e-123
2.1345275e-122
1.0435384e-122
2.0390447e-123
2.0501303e-123
1.2168494e-123
9.0269725e-128
2.1409504e-126
4.0358934e-127
1.3395235e-126
1.3347502e-126
6.9521696e-126
1.52812e-124
4.3554004e-124
2.7160261e-123
2.6485504e-125
9.425604e-125
1.9379069e-123
1.4514827e-123
3.9754427e-123
1.3974185e-123
2.1217397e-123
9.0026895e-124
2.0995132e-124
3.2530645e-124
3.0913623e-124
2.010793e-128
6.6644053e-127
1.093205e-127
3.1993558e-127
2.5500555e-127
1.07398e-126
1.3855979e-125
4.2897776e-125
2.3479729e-124
2.4347038e-126
1.8701193e-125
3.7219534e-124
2.5839809e-124
1.0415695e-123
4.3880011e-124
3.6420339e-124
1.3874699e-124
3.1069656e-125
6.1516152e-125
5.1531151e-124
1.1438896e-128
9.8303385e-128
5.351942e-128
9.9313316e-128
1.5680506e-127
5.5333818e-127
5.3872602e-126
8.0829736e-126
1.7850431e-125
7.7653935e-126
3.4292833e-126
5.139439e-125
3.5705167e-125
1.346974e-124
6.9410857e-125
4.9231565e-125
1.3460705e-125
3.3731107e-126
1.5378617e-125
2.8612055e-124
2.508461e-129
1.0412311e-128
2.3929757e-128
5.3120364e-128
6.3340971e-127
4.9418789e-127
1.9668847e-125
2.8655185e-125
1.537746e-126
6.3259586e-126
4.5678619e-127
5.5241856e-126
5.5915939e-126
2.0708283e-125
1.2574278e-125
9.2890662e-126
2.2128817e-126
4.8372839e-127
3.3566394e-126
8.6578315e-125
8.6108146e-130
7.6828036e-130
3.2666433e-129
2.3675625e-128
5.3291559e-127
3.2729389e-127
1.0262851e-125
1.4677504e-125
2.0420657e-127
3.372955e-126
6.1692564e-127
5.7643642e-127
1.1191802e-126
1.9443083e-126
2.0404165e-126
2.1757006e-126
3.862794e-127
2.296497e-127
5.1120809e-127
1.7424609e-125
1.2224963e-129
9.5616988e-131
7.9691673e-130
1.1008819e-128
1.2769099e-127
9.220097e-128
2.2654415e-126
2.7535953e-126
1.8089574e-127
1.651631e-126
2.758869e-127
1.2158838e-126
9.7213764e-127
2.77066e-127
2.9495083e-126
6.1036924e-126
1.4917879e-127
1.6416722e-126
1.1312458e-127
2.7046233e-126
3.3716655e-130
3.8524579e-131
1.9039688e-130
5.1306815e-129
3.7625578e-128
1.5759439e-128
3.073798e-127
4.2016825e-127
4.14114e-127
3.1295898e-127
3.5135382e-127
5.4425402e-127
3.3046655e-127
9.5885622e-128
3.0335944e-126
3.2098922e-126
5.7721484e-128
6.7213259e-127
1.8150513e-127
4.0374484e-127
4.4236187e-131
2.8466465e-131
4.7009864e-131
1.0905747e-129
6.814778e-129
2.5979903e-128
2.0124949e-127
1.8295376e-127
1.3245201e-126
9.0894557e-128
2.7149673e-127
1.4792937e-126
4.9757691e-127
2.1498218e-127
2.5884953e-126
8.1807847e-127
1.2082679e-127
1.447778e-127
4.4245831e-128
5.874036e-128
3.117505e-131
4.4871275e-131
1.6513337e-130
1.9668982e-130
3.0586424e-129
4.5081609e-128
2.4078728e-126
5.9913867e-128
4.2436618e-127
1.6130802e-128
3.2043306e-127
1.2746988e-125
1.733237e-126
1.3603031e-126
6.274889e-126
2.4703183e-126
9.0017049e-127
1.5250693e-127
1.8276342e-128
8.9651145e-129
5.0940315e-130
6.3716413e-130
5.2118024e-129
3.7143786e-129
5.4641424e-128
1.6140182e-128
4.697925e-127
1.4776376e-128
7.7148628e-128
3.2685576e-128
1.6596601e-126
8.919862e-125
1.3884241e-126
5.7196019e-127
2.4648347e-126
1.0626924e-126
4.4945666e-127
7.4683853e-127
1.0511108e-128
4.9343262e-129
3.7214031e-130
1.8070485e-129
4.2900152e-128
6.3200887e-128
2.2385358e-127
1.5978087e-127
3.6126223e-128
3.1853775e-128
2.1896428e-127
6.5838566e-127
1.1072965e-126
2.6088064e-125
8.7165846e-127
7.54351e-127
3.4632396e-127
1.5786385e-127
4.9362817e-128
2.7255959e-127
3.6916423e-129
1.1962751e-128
5.0446631e-131
3.5427669e-130
1.1803475e-128
6.0552061e-128
2.0828323e-126
1.7667005e-126
1.0233388e-128
8.0043076e-129
2.1558199e-127
8.4918215e-126
7.8464861e-126
2.4879866e-126
2.7244258e-127
6.9588888e-127
3.0437056e-127
2.2175553e-128
3.424562e-128
9.1022399e-128
1.6438636e-129
4.6268208e-129
1.0892055e-131
1.1463276e-130
1.0626198e-129
1.2813714e-128
4.7388834e-127
3.2930815e-127
5.0043076e-128
6.5091436e-129
9.1728519e-128
2.9388181e-126
4.1637971e-126
2.412914e-127
4.0456246e-128
2.3382204e-127
6.9806211e-128
3.0968731e-129
5.9019075e-129
1.1477059e-128
2.238871e-130
9.9907932e-130
6.0117043e-132
1.533377e-131
9.1354458e-131
1.1000063e-129
2.9440877e-128
3.0741101e-128
4.545358e-128
8.0559972e-128
1.5727196e-128
4.3798494e-127
5.7283037e-127
3.498244e-128
1.1595104e-128
8.2060024e-128
2.8810002e-128
3.6126526e-129
1.7555228e-129
1.3498887e-129
3.1060199e-131
1.4962078e-130
2.5640923e-131
2.6969225e-131
2.9843587e-131
8.1795221e-131
2.4297738e-129
4.676266e-129
8.0041339e-129
1.8898815e-128
4.2095945e-129
7.3295347e-128
8.1263899e-128
2.8171199e-129
2.453989e-129
1.3583087e-128
4.7894702e-129
2.8748367e-129
9.1852026e-129
2.3411197e-130
1.1313382e-131
1.706625e-131
2.8887463e-132
2.5713377e-132
3.3193795e-132
3.3442677e-132
9.2199837e-131
2.1567281e-130
1.6275804e-129
1.9011865e-129
2.2261407e-129
4.7218674e-129
3.7612122e-128
3.1769942e-129
5.1378124e-129
1.1517197e-128
5.2238852e-130
3.5924038e-130
2.2493141e-129
2.1443287e-130
2.0657432e-131
1.7474501e-132
2.04644e-132
2.7029845e-132
3.4231104e-131
1.4869585e-131
6.8799369e-131
7.1599933e-131
1.1702692e-129
4.9092497e-129
3.1456126e-128
7.5602572e-129
3.5448441e-128
2.5326084e-129
1.4141544e-129
1.8652596e-129
1.1679332e-130
5.8676844e-131
5.2114099e-130
1.9970474e-130
6.2824273e-131
1.0125023e-132
2.6566724e-133
1.1865179e-132
3.9411868e-131
9.4179017e-131
5.8942326e-130
1.1474061e-130
1.1319825e-130
2.6547382e-129
2.5699897e-128
2.7409623e-129
2.9823136e-129
2.1302128e-130
1.4034468e-130
4.1178156e-130
1.1945121e-129
4.1047581e-131
5.822412e-131
2.1661714e-131
1.2636162e-131
2.2614745e-133
2.0594908e-134
5.9824525e-133
2.5016155e-131
1.789689e-131
1.4561847e-129
3.0989863e-129
8.8422029e-131
1.1813102e-129
3.607538e-128
1.1227659e-128
2.2960824e-130
1.6994665e-130
3.0295643e-130
5.1581063e-129
2.0234722e-129
2.0798209e-130
2.2887694e-130
6.4931615e-132
6.5321445e-133
1.3626391e-134
2.2283175e-133
3.2119844e-132
2.651692e-131
7.0360665e-131
5.1969559e-130
1.0742187e-129
5.430618e-130
1.4988032e-129
2.1118403e-129
5.3757802e-130
2.9188531e-131
9.7871663e-130
7.4213071e-130
1.6333354e-129
1.8526405e-129
1.5950664e-129
6.7385893e-131
3.1024104e-132
5.173827e-134
4.4195386e-135
5.4054945e-117
1.2650533e-117
5.3731362e-118
3.8256554e-117
3.3207838e-117
1.1027382e-115
3.5544299e-115
0
0
1.5234218e-115
3.3091934e-114
6.6977521e-115
7.4599923e-115
2.5402183e-116
4.6276475e-117
1.2953638e-116
4.941655e-116
2.4058726e-117
2.5200007e-118
6.1635284e-119
3.9725185e-118
5.8830904e-119
5.318435e-119
2.1879743e-118
1.5751924e-118
4.5643157e-117
1.5166061e-116
0
2.1205502e-117
2.3464251e-116
2.570585e-114
3.2899454e-115
6.8334258e-116
5.449939e-117
5.3356927e-118
1.7855524e-116
7.3694719e-117
1.51678e-117
5.1832914e-118
6.6836537e-119
1.1063722e-119
1.9921688e-120
1.3459834e-120
3.5484478e-120
5.0211772e-120
6.64528e-118
1.3698829e-117
3.2085648e-118
3.5245501e-118
8.4458195e-117
6.5327686e-115
7.8742007e-116
1.1639796e-116
1.5461965e-117
2.3436206e-118
5.4607778e-117
2.0522835e-117
4.6875907e-118
2.0645821e-118
2.4711423e-119
2.4075323e-121
7.4361496e-122
5.1947227e-122
1.4613887e-120
1.8575883e-120
6.0416733e-119
9.7765351e-119
2.3296652e-119
4.5960845e-118
1.743376e-117
6.1138667e-116
7.8543584e-117
1.3112764e-117
2.3597422e-118
8.3470808e-119
8.2714537e-118
3.8851122e-118
8.653177e-119
4.2374323e-119
8.839219e-120
1.1152079e-122
3.3012357e-122
1.9470612e-121
2.0321217e-121
9.5731858e-121
6.2693821e-120
4.678469e-120
6.3300512e-120
2.354821e-118
1.1926892e-118
3.9755368e-117
9.1630962e-118
1.0816375e-118
3.0851118e-119
1.3336651e-119
1.0032295e-118
6.1915391e-119
1.9765193e-119
2.8779575e-119
4.6214818e-120
4.0368109e-122
1.5272548e-121
1.3480321e-121
4.9185861e-122
2.5700417e-121
5.8080133e-121
1.7084123e-121
2.1076271e-120
3.2395438e-119
1.0094184e-119
2.1960643e-118
1.8271131e-118
1.6548371e-119
8.0567486e-120
3.183435e-120
1.4291188e-119
1.1382565e-119
6.1887954e-120
2.3059137e-119
1.9635181e-120
7.8961443e-123
7.178546e-123
4.7085471e-123
1.0310129e-122
2.9868583e-122
6.2714682e-122
1.0601752e-121
1.2746682e-120
2.6100895e-120
1.7483184e-120
9.7482535e-120
2.3965162e-119
1.966108e-120
2.0104831e-120
1.3886703e-120
1.8673443e-120
1.8313527e-120
2.9348148e-120
3.6710141e-119
1.436598e-120
1.5211989e-124
1.8310207e-124
1.3917996e-123
1.0010075e-122
8.7392345e-123
8.0512017e-123
2.9507828e-122
2.7603717e-121
1.4574309e-121
2.4465301e-121
5.2814363e-121
3.3427367e-120
4.0156711e-121
4.3372577e-121
1.8307257e-120
3.7316371e-121
3.1403143e-121
2.7135663e-120
3.4661446e-119
1.4697219e-120
2.5055084e-125
7.3546908e-125
2.9900503e-124
4.1754529e-123
4.9166448e-123
2.209647e-123
2.9476459e-123
2.5009791e-122
1.1821116e-122
3.8459403e-122
3.4264411e-122
3.1062022e-121
1.9716075e-121
1.9954234e-121
1.5616364e-120
8.9525371e-122
2.0577233e-121
1.9269413e-120
1.3566023e-119
3.994395e-121
1.0847563e-125
2.6479386e-125
5.2192194e-125
5.7579182e-124
9.0839171e-124
1.0323675e-123
1.2621267e-123
3.4157589e-123
2.7513674e-123
7.0800985e-123
5.2865639e-122
2.1525006e-122
6.863663e-122
7.6394569e-122
6.1938549e-121
2.2765956e-122
1.1144562e-121
7.6121705e-121
2.4726104e-120
8.5825223e-122
1.9573557e-126
4.8724196e-126
2.5970656e-125
9.9932224e-125
1.787204e-124
2.8504785e-124
4.8331756e-124
3.4379926e-124
6.1958726e-124
1.6243217e-123
3.140791e-122
3.9030801e-123
1.796032e-122
2.2724255e-122
1.9893512e-121
5.1802499e-123
3.6468724e-122
1.3328169e-121
4.4627856e-121
1.8468131e-121
2.843186e-127
9.3046551e-127
7.8087624e-126
1.5384928e-125
3.6826434e-125
4.1843092e-125
6.5287729e-125
2.4908715e-125
1.3153761e-124
2.3514516e-124
5.7127403e-123
1.2089758e-123
3.0094638e-123
4.3059148e-123
3.0611048e-122
7.6676358e-124
5.3435093e-123
1.6779702e-122
1.546805e-121
3.3018866e-120
1.0006613e-127
6.024121e-127
2.0984107e-126
3.9981528e-126
4.517232e-126
4.21071e-126
7.6197459e-126
3.0751384e-126
1.9473717e-125
2.7581292e-125
7.6519217e-124
2.2224545e-124
4.0978178e-124
7.7921333e-124
4.5299706e-123
1.753844e-124
7.5438231e-124
2.3582464e-123
6.2215692e-122
1.9445807e-120
3.0708101e-128
1.3686015e-127
3.8882176e-127
8.4424827e-127
7.9881461e-127
5.0784434e-127
2.5632316e-126
3.3285043e-126
4.2972421e-126
2.9918082e-126
8.9837999e-125
5.1277595e-125
6.125823e-125
9.5373638e-125
5.5647871e-124
3.4646456e-125
1.5645654e-124
4.7106833e-124
1.7425431e-122
5.8041342e-121
1.2228883e-128
4.4800223e-128
9.9982293e-128
1.2702989e-127
1.1187746e-127
3.9477647e-128
5.8096471e-127
1.1517942e-126
7.120553e-127
7.3994679e-127
2.0054031e-125
9.6635661e-126
1.0763908e-125
1.4676418e-125
7.1796532e-125
5.4981207e-126
3.1072872e-125
5.6637397e-125
2.5881641e-123
1.1236952e-121
1.5937011e-129
5.3634763e-129
1.2551337e-128
3.5855623e-128
1.041313e-127
1.4194642e-128
1.3734176e-127
2.2299243e-127
4.7109993e-127
1.9921612e-127
3.2448029e-126
1.4909466e-126
1.6305516e-126
2.6653783e-126
1.0637225e-125
1.6846985e-126
6.7300253e-126
1.3973347e-125
4.2020509e-124
1.7452266e-122
1.1042015e-129
1.2209642e-129
1.6252921e-129
1.2439378e-128
2.2465547e-127
1.5183401e-127
4.0253425e-128
1.6277836e-127
1.7960399e-126
8.4544392e-127
7.2205508e-127
7.9549124e-127
7.8593169e-127
2.076855e-126
1.463496e-126
8.4564826e-127
1.8058627e-126
3.029676e-125
4.6787488e-125
2.1403315e-123
6.1449048e-130
1.3638373e-129
5.1514911e-129
1.5389382e-128
1.9509788e-127
2.1689716e-127
1.240955e-127
1.3632681e-127
4.8879649e-127
1.7221517e-126
1.206765e-126
2.5110787e-126
2.9557601e-126
4.5448379e-126
4.7871636e-126
3.0632301e-126
1.7462602e-126
1.5706418e-125
4.7051218e-126
2.1373327e-124
4.7272932e-130
5.5066498e-130
2.1833042e-129
2.6774958e-129
8.2303061e-128
1.8190034e-127
1.1698611e-127
2.6277913e-127
6.5091871e-128
8.0261407e-127
8.7259793e-127
2.2382222e-126
1.8724164e-126
2.8597024e-126
2.7725151e-126
2.3885198e-126
1.0353679e-126
4.338616e-126
5.4514122e-127
2.2505536e-125
2.2862258e-130
5.4238732e-130
1.3969139e-129
1.3805331e-129
2.6974015e-128
2.7035606e-128
6.4626444e-128
4.2238504e-127
1.1879947e-127
6.5915015e-127
1.1299197e-126
3.9409939e-126
8.9625369e-126
4.5273494e-126
5.245861e-126
8.2123923e-127
1.261661e-126
6.9527275e-127
1.8552736e-127
1.8524812e-126
2.0080978e-130
2.4554661e-130
5.2107428e-129
2.180049e-128
3.4152691e-127
2.1801612e-128
6.1048616e-127
1.0118506e-127
1.8174493e-127
2.3128321e-126
1.1173987e-125
2.3216909e-126
3.2583129e-126
2.2529349e-126
2.4717656e-126
7.1212106e-127
5.4930586e-127
3.0416583e-127
3.0414004e-127
1.5200587e-127
3.8396795e-131
7.5462304e-131
2.4819765e-129
6.9450268e-129
2.2648371e-127
1.2250236e-127
1.2646443e-127
1.7310945e-127
5.3320358e-128
1.3247987e-126
4.3382567e-126
1.2891495e-125
6.7373504e-127
1.0674332e-126
3.0742152e-127
1.7513326e-126
1.4757948e-127
7.9222333e-128
7.5073334e-127
2.1962325e-128
3.4272259e-132
1.5552442e-131
4.7771903e-130
8.1525745e-129
4.1337009e-127
1.3641603e-126
4.3883096e-128
1.6619002e-127
1.1585248e-127
1.2181593e-126
4.0382241e-126
7.2346345e-126
1.9369411e-126
6.9553922e-127
4.0040615e-128
1.5113323e-126
3.217483e-127
1.575645e-128
1.512086e-127
3.139262e-129
2.1676979e-131
4.9267779e-132
1.0122477e-130
5.2414362e-129
2.4028563e-127
3.9252928e-127
1.3869202e-128
3.0930346e-128
2.3962264e-128
7.3848298e-127
1.1115862e-126
1.4389713e-126
4.6843695e-127
9.8095701e-128
2.8014219e-128
2.4253051e-127
6.0816577e-128
3.6177171e-129
1.6305995e-128
1.3832854e-129
1.2674327e-131
5.5682076e-131
1.9681634e-130
3.3722073e-129
1.0977232e-127
6.261839e-128
5.1333771e-129
4.649948e-129
1.1958004e-128
8.2991865e-128
1.1809709e-127
1.2635232e-127
1.8260312e-127
8.1503282e-128
2.0001387e-127
2.3142008e-127
5.8235954e-128
3.6955375e-129
9.7334783e-129
6.1802169e-130
1.3387506e-132
2.7136892e-132
1.571183e-131
4.9795157e-130
1.02207e-128
4.8005337e-129
4.3911994e-129
1.0721699e-129
1.2517421e-128
1.579312e-128
7.3709223e-129
1.7812406e-128
7.6246808e-128
1.0911264e-128
2.6459226e-128
3.1103199e-128
1.806732e-128
2.3912691e-129
2.3680788e-128
4.5494963e-130
2.2568654e-131
4.1228328e-132
9.6092705e-131
3.5883065e-130
6.4561941e-130
3.0399844e-130
3.3709417e-129
2.4772614e-129
2.3340399e-128
7.1444493e-128
1.7908107e-128
3.2212766e-128
8.0854601e-129
7.1606889e-130
1.0777439e-129
1.3147947e-129
7.509455e-129
1.2953111e-128
1.4911292e-128
2.6720677e-130
4.2853807e-132
2.0978208e-131
1.7609441e-130
4.9182385e-131
1.1388533e-130
1.3285647e-129
7.0864867e-128
1.1833413e-129
2.3786608e-129
9.0018824e-129
1.1421077e-128
6.2107086e-128
7.810067e-128
7.6050363e-129
3.2482735e-130
2.3934295e-130
5.177289e-130
2.3724511e-129
1.21861e-129
2.3513835e-131
4.6287627e-132
6.0191429e-132
1.6646354e-130
1.9671758e-130
8.8362034e-131
1.1762678e-129
7.0127254e-128
1.0941455e-129
1.2456357e-129
9.9972145e-130
3.4166465e-128
1.2373312e-127
2.5897249e-127
1.3464359e-128
9.9907429e-130
2.8807384e-129
5.1652314e-130
1.412132e-130
5.1830617e-131
1.7120578e-132
2.6140021e-133
5.1182782e-132
4.4916835e-131
5.6056444e-131
8.9795059e-130
6.4976798e-130
5.0824285e-129
2.9822045e-129
5.668213e-129
6.5003214e-129
3.5144231e-128
6.3534677e-128
2.5101544e-128
2.2130381e-129
3.2748756e-130
2.8514722e-129
2.5652012e-130
1.0352704e-131
2.2848242e-132
7.2109378e-132
2.9497636e-116
1.6610423e-116
1.0893138e-114
4.8178778e-115
5.7608236e-114
1.4552608e-114
8.9821543e-115
5.7567214e-114
2.3338243e-114
2.3273118e-114
6.034622e-114
1.1829286e-113
6.864241e-115
4.8583511e-116
1.9581142e-115
5.7577988e-116
1.236988e-115
1.0716925e-116
4.7121923e-117
9.2893836e-118
9.9033511e-118
2.7103986e-118
3.3914243e-116
2.8142335e-116
2.4545666e-115
7.2537149e-116
7.5175985e-116
8.758462e-116
4.5562598e-116
3.2895028e-115
1.8468025e-114
5.9941167e-115
1.1687352e-115
8.076351e-116
3.0108815e-116
5.1741629e-116
1.3079969e-115
9.0104454e-116
1.2652324e-116
1.627204e-117
2.5926529e-119
3.8256352e-120
2.4736455e-118
3.459685e-118
2.7456203e-117
4.6135638e-117
5.5910317e-117
1.0169779e-116
3.1380924e-117
7.3042194e-116
3.7240611e-115
5.379838e-116
2.8269089e-115
1.184169e-115
1.2733288e-116
1.8958857e-116
4.876265e-116
1.0093274e-115
8.1387253e-117
8.5647156e-118
6.9381708e-121
1.9079991e-121
1.9739437e-120
1.3358427e-119
2.0869661e-119
2.4181341e-118
5.2071779e-118
2.7351476e-117
3.1943742e-118
6.9930678e-117
3.9789895e-116
1.763632e-116
2.0784458e-115
6.8726887e-116
3.009632e-117
4.4200171e-117
1.2455832e-116
6.3082962e-116
1.554604e-116
4.9363982e-117
6.8631162e-122
2.3423471e-122
1.055423e-120
1.6740762e-120
5.8415821e-121
2.4898507e-119
3.1361651e-118
2.7144304e-119
1.2244581e-118
3.7657404e-118
3.5139457e-117
2.6140672e-117
4.8556216e-116
1.5146457e-116
4.9076587e-118
8.4805586e-118
1.3537927e-117
1.4452952e-116
4.6345434e-116
7.5203587e-117
3.4037075e-124
2.6289491e-124
3.6934025e-121
8.7082258e-121
2.8101582e-120
3.2063966e-120
1.7716373e-118
1.3879749e-118
4.2699151e-119
1.6346491e-118
5.619662e-118
5.845325e-118
5.4529615e-117
1.617673e-117
1.3886443e-117
2.6512855e-118
2.9344102e-118
4.5042961e-117
4.629849e-116
3.63293e-117
1.8438566e-123
5.7196783e-123
3.1893619e-122
1.7699529e-121
1.7340098e-120
1.0646814e-120
3.142433e-119
8.3506288e-119
5.5497049e-120
2.2255665e-119
6.1221853e-119
8.8328218e-119
7.745315e-118
2.794021e-118
1.3736645e-117
9.0158444e-119
8.9265763e-119
1.9578215e-117
2.2658269e-116
1.7506092e-117
9.7839997e-124
2.6638845e-123
2.6883505e-121
1.281418e-121
9.3518374e-121
4.4272856e-121
3.4510067e-120
1.5382947e-119
6.4705954e-120
2.7241568e-120
8.7146227e-120
1.287417e-119
7.9084805e-119
2.409288e-118
5.3379721e-118
2.6845565e-119
4.4507678e-119
1.0430272e-117
5.839221e-117
4.230384e-118
2.927962e-124
4.0871094e-123
1.3231784e-121
3.4649698e-121
5.1266515e-121