/*--------------------------------*- C++ -*----------------------------------*\
| =========                 |                                                 |
| \\      /  F ield         | OpenFOAM: The Open Source CFD Toolbox           |
|  \\    /   O peration     | Version:  1.7.x                                 |
|   \\  /    A nd           | Web:      www.OpenFOAM.com                      |
|    \\/     M anipulation  |                                                 |
\*---------------------------------------------------------------------------*/
FoamFile
{
    version     2.0;
    format      ascii;
    class       volScalarField;
    location    "0.0015";
    object      k;
}
// * * * * * * * * * * * * * * * * * * * * * * * * * * * * * * * * * * * * * //

dimensions      [0 2 -2 0 0 0 0];

internalField   nonuniform List<scalar> 
206988
(
0.033582801
0.0012749325
8.7898756e-05
1.8461513e-05
1.5142906e-05
1.5033369e-05
1.5031241e-05
1.50441e-05
1.5065021e-05
1.5081599e-05
1.507448e-05
1.5084183e-05
1.5013596e-05
1.5125537e-05
1.5070361e-05
1.5145647e-05
1.5127987e-05
1.5203728e-05
2.4684645e-05
0.0013925628
0.0088193029
0.00039474678
2.6625078e-05
1.5092522e-05
1.4675172e-05
1.4704516e-05
1.4732275e-05
1.4763901e-05
1.4794745e-05
1.4866434e-05
1.48445e-05
1.4879156e-05
1.4825453e-05
1.489669e-05
1.4780981e-05
1.4888751e-05
1.4758043e-05
1.4927737e-05
2.0895926e-05
0.0013512386
0.0022583176
7.2352428e-05
1.6396333e-05
1.4654799e-05
1.4609645e-05
1.4616621e-05
1.4631864e-05
1.4643112e-05
1.4652812e-05
1.4730765e-05
1.4636739e-05
1.4772134e-05
1.4640508e-05
1.4789515e-05
1.4646616e-05
1.4756419e-05
1.4676307e-05
1.4733448e-05
2.0594581e-05
0.0012331673
0.0011664137
2.4637983e-05
1.4866832e-05
1.4625759e-05
1.4630674e-05
1.4619719e-05
1.4619159e-05
1.4643379e-05
1.4590451e-05
1.4704812e-05
1.4466752e-05
1.4779589e-05
1.4473269e-05
1.4753966e-05
1.455335e-05
1.4748463e-05
1.4636603e-05
1.4735106e-05
2.1068226e-05
0.00106697
0.00090460395
1.9613644e-05
1.4357447e-05
1.4342054e-05
1.4363548e-05
1.4366026e-05
1.4373388e-05
1.4432964e-05
1.4307274e-05
1.454206e-05
1.4124681e-05
1.4631174e-05
1.4280711e-05
1.4636727e-05
1.437584e-05
1.4609509e-05
1.4472569e-05
1.4629615e-05
2.7473213e-05
0.00092762691
0.00072509927
1.7877388e-05
1.4204273e-05
1.4161806e-05
1.4192896e-05
1.41857e-05
1.4164052e-05
1.4290207e-05
1.3952815e-05
1.4438323e-05
1.3918268e-05
1.4509017e-05
1.4060167e-05
1.4543903e-05
1.422372e-05
1.4486734e-05
1.4313181e-05
1.4409276e-05
2.1884362e-05
0.00078139708
0.00058303806
1.7590069e-05
1.4377085e-05
1.4291295e-05
1.4319584e-05
1.4219594e-05
1.4262792e-05
1.4404334e-05
1.4087737e-05
1.442512e-05
1.3817019e-05
1.4561629e-05
1.3875266e-05
1.4642173e-05
1.3839202e-05
1.4558104e-05
1.4005914e-05
1.4311378e-05
2.1481123e-05
0.00062365532
0.00047692668
1.7265469e-05
1.3945019e-05
1.3849368e-05
1.4080035e-05
1.4106355e-05
1.4091558e-05
1.4150441e-05
1.3926095e-05
1.4287403e-05
1.391378e-05
1.4484322e-05
1.400783e-05
1.4655891e-05
1.4242328e-05
1.4686381e-05
1.4287513e-05
1.4394458e-05
2.2825822e-05
0.00052384184
0.00043189591
1.6512044e-05
1.4232412e-05
1.4166382e-05
1.4213897e-05
1.4232025e-05
1.4102293e-05
1.4169905e-05
1.4136672e-05
1.4218281e-05
1.3867602e-05
1.4445736e-05
1.3751351e-05
1.4577473e-05
1.3960296e-05
1.4439224e-05
1.3944225e-05
1.4245666e-05
2.0405157e-05
0.00052306792
0.00041451948
1.6596255e-05
1.4345524e-05
1.4297346e-05
1.4272624e-05
1.4256911e-05
1.4134259e-05
1.4214558e-05
1.4140454e-05
1.4231474e-05
1.3925703e-05
1.4495874e-05
1.3655947e-05
1.4593446e-05
1.391244e-05
1.4625318e-05
1.4356678e-05
1.4480321e-05
1.8400215e-05
0.00046836394
0.00042230385
1.6501045e-05
1.4319278e-05
1.425665e-05
1.4257814e-05
1.4260711e-05
1.4181999e-05
1.4217375e-05
1.4192676e-05
1.4233578e-05
1.4128876e-05
1.4473097e-05
1.3931243e-05
1.4654496e-05
1.4011254e-05
1.4656848e-05
1.4417776e-05
1.4451761e-05
2.2737818e-05
0.00052954594
0.00044259833
1.6156842e-05
1.4184361e-05
1.4133178e-05
1.4159055e-05
1.4119912e-05
1.4076462e-05
1.4131662e-05
1.4113716e-05
1.4155449e-05
1.4162621e-05
1.4305857e-05
1.3951001e-05
1.4489742e-05
1.3980806e-05
1.4571376e-05
1.4255033e-05
1.449114e-05
1.8534273e-05
0.00058408447
0.0004671507
1.5992105e-05
1.4157989e-05
1.4121543e-05
1.4122925e-05
1.4123391e-05
1.4109218e-05
1.4113905e-05
1.4100841e-05
1.4106405e-05
1.4239816e-05
1.4246884e-05
1.3969313e-05
1.439916e-05
1.4106673e-05
1.450124e-05
1.4405327e-05
1.4551503e-05
2.018495e-05
0.00058925626
0.00048053813
1.5994636e-05
1.4233632e-05
1.4197783e-05
1.4201055e-05
1.4195071e-05
1.4176297e-05
1.4148609e-05
1.4173499e-05
1.4220138e-05
1.4231104e-05
1.4245731e-05
1.4089328e-05
1.4413857e-05
1.4273829e-05
1.4493864e-05
1.445925e-05
1.4507602e-05
1.9995975e-05
0.00061828849
0.00047070679
1.5912942e-05
1.4041205e-05
1.4025487e-05
1.4039024e-05
1.403191e-05
1.4043818e-05
1.405028e-05
1.4069097e-05
1.4126132e-05
1.4107461e-05
1.4221114e-05
1.41557e-05
1.4355558e-05
1.4316032e-05
1.4409954e-05
1.4393394e-05
1.4446169e-05
1.8393726e-05
0.00062983441
0.00045844259
1.5469578e-05
1.3985508e-05
1.3975338e-05
1.3991606e-05
1.3992583e-05
1.4017225e-05
1.4031955e-05
1.4014734e-05
1.4049885e-05
1.4090388e-05
1.4162449e-05
1.4103393e-05
1.4321072e-05
1.424397e-05
1.4394687e-05
1.4286382e-05
1.4441576e-05
1.8294322e-05
0.00062109373
0.00043711349
1.5500158e-05
1.4069874e-05
1.4059395e-05
1.406029e-05
1.4064496e-05
1.4072817e-05
1.4054836e-05
1.4077217e-05
1.4109106e-05
1.4140372e-05
1.4165417e-05
1.4167246e-05
1.430602e-05
1.421145e-05
1.435833e-05
1.4262745e-05
1.4155616e-05
1.8433441e-05
0.0006236471
0.00041779427
1.5252709e-05
1.3865163e-05
1.3857848e-05
1.387894e-05
1.3885059e-05
1.3911125e-05
1.392615e-05
1.3966738e-05
1.3999839e-05
1.4050678e-05
1.4059853e-05
1.4123147e-05
1.4184131e-05
1.4185228e-05
1.4266843e-05
1.4264963e-05
1.4385211e-05
1.9605275e-05
0.0006027456
0.00040135064
1.5045647e-05
1.3838672e-05
1.3838016e-05
1.3851093e-05
1.3854893e-05
1.3865954e-05
1.3878228e-05
1.3932133e-05
1.3934955e-05
1.399658e-05
1.4034581e-05
1.4041465e-05
1.4119339e-05
1.4054909e-05
1.4183816e-05
1.4177384e-05
1.4310535e-05
1.9261303e-05
0.00056531978
0.00038422838
1.515553e-05
1.3845202e-05
1.3841413e-05
1.384542e-05
1.3856855e-05
1.3874071e-05
1.3908501e-05
1.3939678e-05
1.3926672e-05
1.402255e-05
1.4047684e-05
1.4047645e-05
1.4113136e-05
1.4101815e-05
1.4173554e-05
1.4155289e-05
1.4205718e-05
1.692455e-05
0.00054100527
0.00036888036
1.5188486e-05
1.3784407e-05
1.3777762e-05
1.379171e-05
1.3800614e-05
1.3812449e-05
1.3832798e-05
1.3860678e-05
1.389093e-05
1.3950485e-05
1.3966253e-05
1.3992218e-05
1.4035795e-05
1.3975425e-05
1.4098962e-05
1.4029805e-05
1.4227654e-05
1.8006535e-05
0.00050310918
0.00035458141
1.4652173e-05
1.362628e-05
1.3624749e-05
1.3641568e-05
1.3658047e-05
1.3681446e-05
1.3711238e-05
1.3751569e-05
1.3776384e-05
1.3830648e-05
1.384361e-05
1.3909307e-05
1.3944383e-05
1.3918082e-05
1.3987582e-05
1.3950682e-05
1.4124132e-05
1.8409599e-05
0.00047334236
0.00033716072
1.4814346e-05
1.3555602e-05
1.355652e-05
1.3563854e-05
1.3578155e-05
1.3599956e-05
1.362544e-05
1.3659933e-05
1.3688158e-05
1.3749361e-05
1.3780783e-05
1.3827367e-05
1.386795e-05
1.386053e-05
1.3912246e-05
1.3943135e-05
1.4017353e-05
1.7277126e-05
0.00043409156
0.00032097897
1.4858592e-05
1.3584461e-05
1.3585953e-05
1.3595435e-05
1.3608915e-05
1.3635242e-05
1.3661048e-05
1.3686264e-05
1.3708196e-05
1.3735898e-05
1.3756761e-05
1.376836e-05
1.3773241e-05
1.3801947e-05
1.3836199e-05
1.3856625e-05
1.3940876e-05
1.6952763e-05
0.0003961051
0.00030272699
1.468476e-05
1.3411429e-05
1.3415355e-05
1.3426285e-05
1.3445313e-05
1.3467793e-05
1.3499713e-05
1.3531595e-05
1.3593111e-05
1.3636139e-05
1.3669263e-05
1.3693478e-05
1.3691825e-05
1.3723666e-05
1.3741442e-05
1.3739372e-05
1.3884053e-05
1.6696513e-05
0.00036699244
0.00028073239
1.4438124e-05
1.336457e-05
1.3379182e-05
1.3378043e-05
1.3393131e-05
1.3409597e-05
1.3430277e-05
1.3459377e-05
1.3503406e-05
1.3548682e-05
1.359445e-05
1.3633524e-05
1.3634745e-05
1.3661812e-05
1.3692599e-05
1.3684277e-05
1.3814156e-05
1.6545861e-05
0.00034022652
0.00025476545
1.4425983e-05
1.3390689e-05
1.3407662e-05
1.3408457e-05
1.3425351e-05
1.3450389e-05
1.3471619e-05
1.3492148e-05
1.3517975e-05
1.3552277e-05
1.3582042e-05
1.3602247e-05
1.3617298e-05
1.3619471e-05
1.3634493e-05
1.3660356e-05
1.3763233e-05
1.630256e-05
0.00031661472
0.00022771752
1.4397716e-05
1.3254615e-05
1.3280452e-05
1.3278567e-05
1.3296265e-05
1.331547e-05
1.3351541e-05
1.3399635e-05
1.3442347e-05
1.3471474e-05
1.3506731e-05
1.3523319e-05
1.3547604e-05
1.3555525e-05
1.3561306e-05
1.35878e-05
1.3682164e-05
1.6080096e-05
0.00029487592
0.00019538286
1.4276837e-05
1.3210886e-05
1.324801e-05
1.3241503e-05
1.3260299e-05
1.3282431e-05
1.3318866e-05
1.3368852e-05
1.3413858e-05
1.3434329e-05
1.3459835e-05
1.3475661e-05
1.350323e-05
1.3519767e-05
1.3526989e-05
1.353458e-05
1.3625797e-05
1.5623138e-05
0.00027129846
0.00015973579
1.417406e-05
1.3274953e-05
1.3330303e-05
1.3329988e-05
1.3361472e-05
1.3395377e-05
1.342671e-05
1.3457715e-05
1.3507568e-05
1.3540365e-05
1.3572269e-05
1.3594584e-05
1.3606669e-05
1.3607283e-05
1.3621672e-05
1.3605726e-05
1.3651159e-05
1.4762289e-05
0.00029172332
0.03246722
0.00092659208
6.1295777e-05
1.2468378e-05
1.0242188e-05
1.013837e-05
1.0216673e-05
1.0147245e-05
1.0245866e-05
1.0161182e-05
1.0190102e-05
1.0208035e-05
1.029474e-05
1.0270479e-05
1.0218919e-05
1.0250352e-05
1.0413118e-05
1.0297671e-05
1.4839467e-05
0.0013703286
0.0089347687
0.00034924937
1.9577134e-05
1.0482486e-05
1.0149156e-05
1.0141272e-05
1.013438e-05
1.0128442e-05
1.0145133e-05
1.0142332e-05
1.0159704e-05
1.0164627e-05
1.0208098e-05
1.0196965e-05
1.0220445e-05
1.0148711e-05
1.0212486e-05
1.0283532e-05
1.7447778e-05
0.0013230525
0.0022727361
6.0591782e-05
1.1852922e-05
1.0353741e-05
1.0249483e-05
1.031827e-05
1.0305469e-05
1.0313366e-05
1.0267405e-05
1.0294592e-05
1.0255275e-05
1.0218108e-05
1.0153801e-05
1.0274703e-05
1.0236897e-05
1.0162595e-05
1.0233884e-05
1.021536e-05
1.6654332e-05
0.0012231912
0.0011853751
1.9001156e-05
1.0317989e-05
1.0155256e-05
1.0157151e-05
1.0162932e-05
1.0182972e-05
1.018424e-05
1.0212006e-05
1.0155067e-05
1.0164022e-05
1.0157024e-05
1.0210328e-05
1.0176767e-05
1.0242333e-05
1.0148749e-05
1.0319107e-05
1.020011e-05
1.9008691e-05
0.001070741
0.00093435037
1.4877881e-05
1.0139803e-05
1.0113298e-05
1.0139925e-05
1.0115726e-05
1.0130356e-05
1.0115902e-05
1.0161964e-05
1.0150862e-05
1.0187805e-05
1.0144667e-05
1.0244788e-05
1.0176138e-05
1.0223422e-05
1.0194701e-05
1.0290337e-05
1.0239052e-05
1.9534662e-05
0.00093713453
0.00075812564
1.5281615e-05
1.0274584e-05
1.0292859e-05
1.028741e-05
1.0295885e-05
1.0304217e-05
1.0305782e-05
1.0271978e-05
1.0206695e-05
1.0176639e-05
1.0259351e-05
1.0182854e-05
1.0266532e-05
1.0279699e-05
1.0236098e-05
1.0287565e-05
1.0200482e-05
1.2314552e-05
0.0008359975
0.00060950847
1.3665925e-05
1.0202961e-05
1.0127488e-05
1.0116462e-05
1.0119759e-05
1.0118694e-05
1.0133589e-05
1.0156547e-05
1.0156495e-05
1.0150982e-05
1.013225e-05
1.0159185e-05
1.0164334e-05
1.0236662e-05
1.0127438e-05
1.0249881e-05
1.0272633e-05
2.1002767e-05
0.00064430221
0.00051254617
1.30033e-05
1.0139499e-05
1.0111925e-05
1.0135137e-05
1.011564e-05
1.0111819e-05
1.0107561e-05
1.0125552e-05
1.0143994e-05
1.0144398e-05
1.0138379e-05
1.0127783e-05
1.0162715e-05
1.0149507e-05
1.0287469e-05
1.0263339e-05
1.0370888e-05
1.6930658e-05
0.00055589956
0.00046332671
1.27802e-05
1.0198928e-05
1.0204691e-05
1.0236092e-05
1.0215534e-05
1.0212294e-05
1.0184821e-05
1.0215347e-05
1.0163022e-05
1.0180177e-05
1.0175011e-05
1.0173333e-05
1.0148198e-05
1.0160564e-05
1.0219093e-05
1.0333374e-05
1.0340258e-05
1.6135587e-05
0.00049754202
0.00044171078
1.2802362e-05
1.0154091e-05
1.0146897e-05
1.0154788e-05
1.0154511e-05
1.0154566e-05
1.0150505e-05
1.0160497e-05
1.0124848e-05
1.0160694e-05
1.0269855e-05
1.0173532e-05
1.0219057e-05
1.0156977e-05
1.0286226e-05
1.0206395e-05
1.029702e-05
1.6634443e-05
0.00050616765
0.00044751363
1.2370974e-05
1.0140701e-05
1.0143488e-05
1.0144344e-05
1.0143132e-05
1.0132756e-05
1.0169473e-05
1.0175183e-05
1.0151746e-05
1.0145984e-05
1.0147484e-05
1.0191732e-05
1.0187946e-05
1.0160744e-05
1.021221e-05
1.0211522e-05
1.024583e-05
1.8595647e-05
0.000562927
0.000460433
1.2186879e-05
1.0134852e-05
1.0122565e-05
1.0125489e-05
1.0121216e-05
1.0129369e-05
1.0122327e-05
1.0128157e-05
1.0128764e-05
1.0147431e-05
1.0134903e-05
1.0157476e-05
1.0139259e-05
1.0155485e-05
1.0194011e-05
1.0169393e-05
1.0181651e-05
1.5154203e-05
0.00061270578
0.00048564603
1.2122878e-05
1.0149005e-05
1.01457e-05
1.014084e-05
1.0141518e-05
1.0140159e-05
1.0137565e-05
1.012213e-05
1.0122601e-05
1.0114661e-05
1.0132973e-05
1.0135405e-05
1.0168321e-05
1.0171864e-05
1.0279949e-05
1.012399e-05
1.0235588e-05
1.5697748e-05
0.00061477295
0.00050504118
1.2024781e-05
1.0138511e-05
1.0131948e-05
1.0128146e-05
1.0128356e-05
1.0124977e-05
1.0121319e-05
1.0142783e-05
1.0142484e-05
1.0099863e-05
1.0119549e-05
1.0121181e-05
1.0131754e-05
1.0212079e-05
1.0253732e-05
1.0154206e-05
1.0300129e-05
1.6645476e-05
0.00065101359
0.00048285227
1.1663413e-05
1.0119752e-05
1.0100556e-05
1.0103728e-05
1.0106839e-05
1.0103947e-05
1.0105687e-05
1.0105115e-05
1.0106907e-05
1.0121975e-05
1.0108945e-05
1.0182431e-05
1.0137172e-05
1.0169129e-05
1.0114977e-05
1.0142722e-05
1.0217512e-05
1.4049961e-05
0.0006585939
0.00047219306
1.1685765e-05
1.010847e-05
1.0113222e-05
1.0113198e-05
1.0114072e-05
1.010111e-05
1.0119794e-05
1.0102877e-05
1.0096555e-05
1.011536e-05
1.0099782e-05
1.0102654e-05
1.0116446e-05
1.0161652e-05
1.0187546e-05
1.0182645e-05
1.0232357e-05
1.3772303e-05
0.00064495698
0.00044779286
1.1574194e-05
1.0117447e-05
1.0109275e-05
1.011153e-05
1.0112065e-05
1.0112226e-05
1.0115658e-05
1.0100487e-05
1.0117135e-05
1.0100047e-05
1.0102435e-05
1.0119847e-05
1.0171701e-05
1.0158768e-05
1.0227467e-05
1.0182388e-05
1.0275095e-05
1.5179638e-05
0.00064473528
0.00042602338
1.1296739e-05
1.0088384e-05
1.0092875e-05
1.0091077e-05
1.0095067e-05
1.0099662e-05
1.0091495e-05
1.0093371e-05
1.0102904e-05
1.0103007e-05
1.011882e-05
1.0134314e-05
1.0121387e-05
1.0157295e-05
1.0121512e-05
1.0135652e-05
1.0171052e-05
1.3962023e-05
0.00062057508
0.00040705841
1.1244486e-05
1.0102489e-05
1.0088326e-05
1.0086648e-05
1.0101983e-05
1.0094686e-05
1.0113308e-05
1.0099756e-05
1.0100507e-05
1.0099051e-05
1.0116345e-05
1.0094468e-05
1.0154882e-05
1.0127307e-05
1.01475e-05
1.0155867e-05
1.0199063e-05
1.352895e-05
0.00058436523
0.00039090686
1.1270764e-05
1.0093994e-05
1.0090643e-05
1.0095858e-05
1.0092946e-05
1.0099917e-05
1.009614e-05
1.0103344e-05
1.0112402e-05
1.0101176e-05
1.0092084e-05
1.009963e-05
1.0156174e-05
1.0135563e-05
1.0143511e-05
1.0106277e-05
1.0219151e-05
1.4353182e-05
0.00055591469
0.00037543483
1.1177849e-05
1.0082577e-05
1.0077688e-05
1.007941e-05
1.0083176e-05
1.0081903e-05
1.0081551e-05
1.0081662e-05
1.0087844e-05
1.0073319e-05
1.009349e-05
1.0095427e-05
1.0113027e-05
1.0092956e-05
1.0130572e-05
1.0096265e-05
1.0183091e-05
1.2275365e-05
0.00051130529
0.0003606405
1.1105879e-05
1.0079607e-05
1.0079203e-05
1.0077976e-05
1.0078535e-05
1.0081576e-05
1.0088678e-05
1.0086045e-05
1.0099133e-05
1.010754e-05
1.0121144e-05
1.0130831e-05
1.0136538e-05
1.0097376e-05
1.0132937e-05
1.0127792e-05
1.0170803e-05
1.2752258e-05
0.00047796237
0.00034665094
1.1290568e-05
1.0060683e-05
1.0056502e-05
1.0057368e-05
1.0059277e-05
1.0057572e-05
1.0060877e-05
1.0059811e-05
1.0079292e-05
1.0108109e-05
1.0117218e-05
1.013419e-05
1.0116496e-05
1.0155547e-05
1.0145343e-05
1.0155839e-05
1.0196088e-05
1.263876e-05
0.00043940889
0.00033276534
1.1100809e-05
1.0074595e-05
1.0067141e-05
1.0070474e-05
1.0073736e-05
1.0074416e-05
1.0073766e-05
1.0078196e-05
1.0084148e-05
1.0085717e-05
1.009235e-05
1.0101041e-05
1.0111157e-05
1.013251e-05
1.0120161e-05
1.0131604e-05
1.0198881e-05
1.224015e-05
0.00039912318
0.00031299208
1.1146414e-05
1.0057691e-05
1.0050588e-05
1.0053322e-05
1.0053408e-05
1.0056186e-05
1.0055264e-05
1.0064707e-05
1.0061724e-05
1.0069104e-05
1.007177e-05
1.0074123e-05
1.0071347e-05
1.0081285e-05
1.0091536e-05
1.0095107e-05
1.0123482e-05
1.1907199e-05
0.00036685468
0.00029406872
1.1253068e-05
1.0040151e-05
1.003708e-05
1.0036802e-05
1.0035751e-05
1.0035625e-05
1.0042012e-05
1.0060904e-05
1.0066412e-05
1.0075923e-05
1.0072617e-05
1.0075725e-05
1.0074882e-05
1.0078444e-05
1.0080117e-05
1.0084983e-05
1.0160133e-05
1.1814838e-05
0.00033682884
0.00027122517
1.1002375e-05
1.0055467e-05
1.0045922e-05
1.0051677e-05
1.005023e-05
1.0050604e-05
1.0052949e-05
1.005486e-05
1.0063293e-05
1.0064207e-05
1.0066978e-05
1.0069275e-05
1.0070702e-05
1.0073905e-05
1.0072357e-05
1.0079155e-05
1.0108475e-05
1.1846058e-05
0.00031529645
0.0002438586
1.1095636e-05
1.0051119e-05
1.0038565e-05
1.0045873e-05
1.0044555e-05
1.0046428e-05
1.0046764e-05
1.0050238e-05
1.0053878e-05
1.0057768e-05
1.0060277e-05
1.0063415e-05
1.0067335e-05
1.0068641e-05
1.0069312e-05
1.0072546e-05
1.0054008e-05
1.1711612e-05
0.00029554695
0.00021297179
1.1053995e-05
1.0037053e-05
1.0034219e-05
1.0034794e-05
1.0033001e-05
1.003192e-05
1.0034601e-05
1.0037544e-05
1.0043224e-05
1.0050319e-05
1.0050129e-05
1.0058043e-05
1.0063388e-05
1.0063977e-05
1.0060646e-05
1.0055015e-05
1.0062167e-05
1.160122e-05
0.00027579506
0.00017991686
1.095096e-05
1.0042849e-05
1.002696e-05
1.0031681e-05
1.0032559e-05
1.0038208e-05
1.0036173e-05
1.0040341e-05
1.0045703e-05
1.0054292e-05
1.0056762e-05
1.006258e-05
1.0074461e-05
1.0073218e-05
1.0069224e-05
1.0070032e-05
1.0064742e-05
1.1565066e-05
0.00026644511
0.03301753
0.0010157625
6.8070195e-05
1.275674e-05
1.0148346e-05
1.0092764e-05
1.00634e-05
1.0046686e-05
1.0044971e-05
1.0046149e-05
1.0048282e-05
1.0067488e-05
1.0082164e-05
1.0079664e-05
1.007679e-05
1.0106124e-05
1.0201658e-05
1.0124745e-05
2.3165775e-05
0.0013716836
0.0089449559
0.00035136973
1.9995308e-05
1.0400518e-05
1.0118802e-05
1.0088485e-05
1.0093173e-05
1.0085154e-05
1.0043792e-05
1.0046407e-05
1.0082502e-05
1.0068061e-05
1.0082969e-05
1.0090456e-05
1.014338e-05
1.0110211e-05
1.0120698e-05
1.0044159e-05
1.3889008e-05
0.0013514401
0.0022946599
6.4776e-05
1.1636154e-05
1.0102287e-05
1.0094498e-05
1.0088171e-05
1.0070573e-05
1.0077302e-05
1.0078782e-05
1.0055596e-05
1.005343e-05
1.0061564e-05
1.0062252e-05
1.0079507e-05
1.0067002e-05
1.0088625e-05
1.0060314e-05
1.0111872e-05
1.9141729e-05
0.0012271493
0.0011853036
1.9968083e-05
1.0291021e-05
1.0061778e-05
1.0064378e-05
1.008608e-05
1.0098544e-05
1.0089191e-05
1.0088051e-05
1.008384e-05
1.0060865e-05
1.0057819e-05
1.0047995e-05
1.0055154e-05
1.0076141e-05
1.0060331e-05
1.0091696e-05
1.0069792e-05
1.280759e-05
0.0011691009
0.0009468752
1.5393556e-05
1.0105802e-05
1.0083004e-05
1.0076497e-05
1.0067304e-05
1.009347e-05
1.0076605e-05
1.0055733e-05
1.0069299e-05
1.0072336e-05
1.0079976e-05
1.0052805e-05
1.0076686e-05
1.0085127e-05
1.0138455e-05
1.0071178e-05
1.0182388e-05
1.7627735e-05
0.00095361286
0.00079469609
1.4837189e-05
1.0102228e-05
1.0076789e-05
1.0072601e-05
1.006407e-05
1.0065589e-05
1.0058487e-05
1.0060921e-05
1.0047996e-05
1.0063215e-05
1.0055754e-05
1.0048343e-05
1.0151261e-05
1.0063076e-05
1.0145865e-05
1.0078034e-05
1.0238095e-05
2.0145276e-05
0.00082362068
0.0006534692
1.3918285e-05
1.0073724e-05
1.0053576e-05
1.0056677e-05
1.0054586e-05
1.0061579e-05
1.0059792e-05
1.0055033e-05
1.0063319e-05
1.0074497e-05
1.0069168e-05
1.0068188e-05
1.0122775e-05
1.0108217e-05
1.0143608e-05
1.0146412e-05
1.0149267e-05
1.9202888e-05
0.00068571873
0.00056545843
1.3338238e-05
1.0080344e-05
1.0066316e-05
1.0062164e-05
1.0068882e-05
1.0062088e-05
1.0066854e-05
1.0053213e-05
1.006478e-05
1.0059453e-05
1.0064141e-05
1.0073884e-05
1.0075891e-05
1.0150383e-05
1.0101363e-05
1.0085879e-05
1.0239908e-05
1.5323962e-05
0.00064555935
0.00050730756
1.3092877e-05
1.0080542e-05
1.0057053e-05
1.0080506e-05
1.0056889e-05
1.0064179e-05
1.0062217e-05
1.0056246e-05
1.0064333e-05
1.0063397e-05
1.0055893e-05
1.0061055e-05
1.0072328e-05
1.0123189e-05
1.007212e-05
1.0072676e-05
1.0198239e-05
1.8113079e-05
0.00053482216
0.00047618584
1.2605502e-05
1.0073314e-05
1.0066664e-05
1.0083878e-05
1.007299e-05
1.005534e-05
1.0055188e-05
1.0067862e-05
1.0062684e-05
1.004804e-05
1.0047865e-05
1.0095893e-05
1.0072953e-05
1.0184175e-05
1.0083377e-05
1.0091082e-05
1.0327239e-05
1.9828698e-05
0.00056396476
0.0004823356
1.2385737e-05
1.0052859e-05
1.0052107e-05
1.0056084e-05
1.0043367e-05
1.0041789e-05
1.0041032e-05
1.0055538e-05
1.0055596e-05
1.0076579e-05
1.0068363e-05
1.0057008e-05
1.0082918e-05
1.0099979e-05
1.0094991e-05
1.0089541e-05
1.0208504e-05
1.5713728e-05
0.00058078632
0.00050292851
1.2206827e-05
1.0051987e-05
1.0049319e-05
1.0042713e-05
1.0038851e-05
1.0039703e-05
1.0048673e-05
1.0061378e-05
1.0043359e-05
1.0082867e-05
1.0058727e-05
1.0066538e-05
1.0085334e-05
1.0084244e-05
1.0055125e-05
1.0120664e-05
1.0151781e-05
1.618627e-05
0.00063307429
0.0005226126
1.2009676e-05
1.0046652e-05
1.0045751e-05
1.0048219e-05
1.0045466e-05
1.0048267e-05
1.0046006e-05
1.0059357e-05
1.0047447e-05
1.0054832e-05
1.0062131e-05
1.0049496e-05
1.0118655e-05
1.0093656e-05
1.0091513e-05
1.0102574e-05
1.0113389e-05
1.4212594e-05
0.00065296867
0.00052687436
1.184848e-05
1.0050259e-05
1.0032774e-05
1.003678e-05
1.0037285e-05
1.0038557e-05
1.0052729e-05
1.0054101e-05
1.0038127e-05
1.0050075e-05
1.0048464e-05
1.0063478e-05
1.0078404e-05
1.0072566e-05
1.0072901e-05
1.0143962e-05
1.0161143e-05
1.761703e-05
0.00066764144
0.00051803468
1.1774179e-05
1.0050449e-05
1.0033915e-05
1.0034888e-05
1.0036979e-05
1.0043172e-05
1.0048852e-05
1.0040681e-05
1.004151e-05
1.0049042e-05
1.0035701e-05
1.0049164e-05
1.0053601e-05
1.0057522e-05
1.0065786e-05
1.0089618e-05
1.0118769e-05
1.4949643e-05
0.00068971037
0.00049729033
1.1538732e-05
1.0044171e-05
1.0032737e-05
1.0045092e-05
1.0041617e-05
1.0041579e-05
1.0053988e-05
1.0046995e-05
1.0046947e-05
1.0051621e-05
1.0057522e-05
1.0053155e-05
1.0072816e-05
1.0045709e-05
1.008114e-05
1.0070985e-05
1.0173723e-05
1.4048719e-05
0.00067169264
0.00046911081
1.1360715e-05
1.0028682e-05
1.0030431e-05
1.0028714e-05
1.0036847e-05
1.0029622e-05
1.0027587e-05
1.0032164e-05
1.0037645e-05
1.0051729e-05
1.0040036e-05
1.0055562e-05
1.0076319e-05
1.0039424e-05
1.0053157e-05
1.0059842e-05
1.0122975e-05
1.4580944e-05
0.00066270846
0.00045234649
1.1438968e-05
1.0031201e-05
1.0020052e-05
1.002286e-05
1.0023421e-05
1.002708e-05
1.0024212e-05
1.0039518e-05
1.0045529e-05
1.0030209e-05
1.0025894e-05
1.0038703e-05
1.0032719e-05
1.0046284e-05
1.0034642e-05
1.0059774e-05
1.0096123e-05
1.3747985e-05
0.00065090222
0.00042671223
1.1285048e-05
1.0031936e-05
1.0022666e-05
1.0022209e-05
1.0030071e-05
1.0030264e-05
1.003444e-05
1.0041126e-05
1.0046202e-05
1.0035779e-05
1.0017549e-05
1.0040672e-05
1.0069754e-05
1.0072718e-05
1.0055021e-05
1.0055989e-05
1.0084898e-05
1.5196983e-05
0.00061312162
0.00040979403
1.1323779e-05
1.001771e-05
1.0017458e-05
1.0011843e-05
1.0012682e-05
1.0014282e-05
1.0015542e-05
1.0015523e-05
1.002582e-05
1.0024513e-05
1.0030251e-05
1.004475e-05
1.0065443e-05
1.0044205e-05
1.0033468e-05
1.0040699e-05
1.0104032e-05
1.3189612e-05
0.00056879167
0.00039667834
1.1106753e-05
1.0011363e-05
1.0014662e-05
1.0012835e-05
1.00114e-05
1.0018369e-05
1.001951e-05
1.0012796e-05
1.0021151e-05
1.0027113e-05
1.0020814e-05
1.0024379e-05
1.0035923e-05
1.0031446e-05
1.0037363e-05
1.0046484e-05
1.0114346e-05
1.261829e-05
0.00053677607
0.00038297367
1.1295837e-05
1.0010422e-05
1.0006727e-05
1.0005712e-05
1.0003261e-05
1.0003687e-05
1.0004251e-05
1.0006757e-05
1.0019011e-05
1.0026589e-05
1.0019262e-05
1.0027305e-05
1.0026721e-05
1.00582e-05
1.0060229e-05
1.0046875e-05
1.0072064e-05
1.325212e-05
0.00049446759
0.00036647908
1.126404e-05
1.0019052e-05
1.0004579e-05
1.0010311e-05
1.0006456e-05
1.0005218e-05
1.0016847e-05
1.0012434e-05
1.0002413e-05
1.0013085e-05
1.0017882e-05
1.0034529e-05
1.0044854e-05
1.0040969e-05
1.0043206e-05
1.0049554e-05
1.008048e-05
1.2684572e-05
0.00045378611
0.0003531308
1.1110601e-05
1.0012272e-05
1.0001864e-05
1.0006047e-05
1.0005862e-05
1.000654e-05
1.0006164e-05
9.9997714e-06
1.0000021e-05
1.0015545e-05
1.0012558e-05
1.0029172e-05
1.0011512e-05
1.003519e-05
1.0080586e-05
1.0027934e-05
1.0124794e-05
1.2270831e-05
0.00041464534
0.0003338248
1.1466064e-05
1.0004955e-05
1.0006413e-05
1.0006062e-05
1.0004843e-05
1.0006579e-05
1.0001431e-05
9.9998811e-06
1.000908e-05
1.0011535e-05
1.0009901e-05
1.0041355e-05
1.0023297e-05
1.0025774e-05
1.0058053e-05
1.0084176e-05
1.0109933e-05
1.2136363e-05
0.00038298767
0.0003137429
1.1209788e-05
1.0001488e-05
9.995439e-06
9.9960737e-06
9.9950529e-06
9.9994458e-06
1.0002536e-05
9.9991049e-06
9.9959049e-06
9.9988317e-06
1.0002812e-05
1.0009214e-05
1.002301e-05
1.0019101e-05
1.0023135e-05
1.0029211e-05
1.0106148e-05
1.2017187e-05
0.0003552708
0.00029049582
1.1209363e-05
9.9959864e-06
1.0001937e-05
1.0003276e-05
9.9985966e-06
1.0002481e-05
1.000569e-05
1.0000364e-05
9.994736e-06
1.0004302e-05
1.0002938e-05
1.0004081e-05
1.0003896e-05
1.0007495e-05
1.0006619e-05
1.0006655e-05
1.0065909e-05
1.1863603e-05
0.00033102984
0.00026429731
1.114351e-05
1.0000185e-05
9.9972991e-06
1.0003341e-05
9.9997872e-06
9.9993812e-06
1.0002954e-05
1.0007297e-05
1.0012578e-05
1.0005118e-05
1.0001025e-05
9.9998174e-06
9.9998866e-06
9.9992601e-06
9.9973171e-06
1.0002074e-05
1.000799e-05
1.1779493e-05
0.00031414638
0.00023545962
1.1216325e-05
9.9971354e-06
9.9945851e-06
9.9928925e-06
9.9945254e-06
9.9950227e-06
9.9941533e-06
9.9948876e-06
9.9973428e-06
1.0002206e-05
9.9991112e-06
9.997609e-06
9.999965e-06
9.9992375e-06
9.9983642e-06
9.9971687e-06
1.0019231e-05
1.1677926e-05
0.00029625841
0.00020668879
1.1108524e-05
9.9980703e-06
9.9927382e-06
9.9897606e-06
9.9903109e-06
9.9916378e-06
9.993133e-06
9.9913151e-06
9.9920126e-06
9.9936768e-06
1.000206e-05
1.0010282e-05
1.0015857e-05
1.0004981e-05
1.0005466e-05
1.0006622e-05
1.0037671e-05
1.176541e-05
0.00030289549
0.03367193
0.00097221966
6.8713285e-05
1.2806185e-05
1.0197222e-05
1.0061644e-05
1.0065187e-05
1.0051279e-05
1.0073506e-05
1.0046527e-05
1.0046438e-05
1.0061683e-05
1.0063415e-05
1.0071825e-05
1.012766e-05
1.0133804e-05
1.0266455e-05
1.0224443e-05
2.3173161e-05
0.001354827
0.009083782
0.00037897769
2.0377929e-05
1.044124e-05
1.0106775e-05
1.0089073e-05
1.0051105e-05
1.008756e-05
1.0050566e-05
1.0040732e-05
1.0051026e-05
1.0052609e-05
1.0112458e-05
1.0066633e-05
1.010675e-05
1.0088671e-05
1.0108765e-05
1.0143645e-05
1.3758833e-05
0.0013117505
0.0023173356
6.7519613e-05
1.1701705e-05
1.0104033e-05
1.0055581e-05
1.0059689e-05
1.0050515e-05
1.0097305e-05
1.007402e-05
1.0054605e-05
1.0047015e-05
1.0060592e-05
1.0085669e-05
1.0060464e-05
1.0047352e-05
1.0084297e-05
1.0079232e-05
1.0090699e-05
1.8581957e-05
0.0012042705
0.001219195
2.0012947e-05
1.0277477e-05
1.007627e-05
1.0062341e-05
1.0090502e-05
1.0063248e-05
1.0094099e-05
1.0056298e-05
1.0067051e-05
1.0081475e-05
1.0045424e-05
1.0052025e-05
1.0119675e-05
1.0132233e-05
1.0075967e-05
1.0151683e-05
1.0164395e-05
2.127187e-05
0.0011164796
0.00099010739
1.5748105e-05
1.0085941e-05
1.0052479e-05
1.0056677e-05
1.0067415e-05
1.0088391e-05
1.0100768e-05
1.0078068e-05
1.0086757e-05
1.0054616e-05
1.005658e-05
1.0077504e-05
1.0082414e-05
1.0088564e-05
1.0117376e-05
1.0078611e-05
1.0077079e-05
1.2612973e-05
0.0010844333
0.0008301671
1.4275267e-05
1.0071395e-05
1.0050052e-05
1.0075234e-05
1.0063558e-05
1.007376e-05
1.0086991e-05
1.0075569e-05
1.0062976e-05
1.0047774e-05
1.0089621e-05
1.0066764e-05
1.0064296e-05
1.0059783e-05
1.0081274e-05
1.0131175e-05
1.0260097e-05
2.396804e-05
0.00083552869
0.00071655389
1.360674e-05
1.0056204e-05
1.005229e-05
1.0045347e-05
1.0065259e-05
1.0078191e-05
1.008702e-05
1.006023e-05
1.0057385e-05
1.006322e-05
1.0087566e-05
1.0075641e-05
1.0051353e-05
1.0089835e-05
1.0077622e-05
1.0133448e-05
1.0126797e-05
1.7268178e-05
0.00073700742
0.00062874053
1.3417017e-05
1.0053337e-05
1.0043466e-05
1.0042686e-05
1.0049445e-05
1.0052385e-05
1.0052714e-05
1.004931e-05
1.0068935e-05
1.0065204e-05
1.0099683e-05
1.0089684e-05
1.0076308e-05
1.0099226e-05
1.0054288e-05
1.007412e-05
1.0194717e-05
1.9695659e-05
0.00065578771
0.00057386337
1.2632081e-05
1.0053655e-05
1.0046256e-05
1.0048237e-05
1.0046821e-05
1.0050755e-05
1.0059931e-05
1.0053418e-05
1.0053365e-05
1.0083741e-05
1.0073913e-05
1.00679e-05
1.007729e-05
1.005404e-05
1.0110624e-05
1.0101391e-05
1.020835e-05
1.6109795e-05
0.00061664119
0.00054631832
1.2469099e-05
1.0046629e-05
1.0046168e-05
1.0045793e-05
1.0050684e-05
1.0066207e-05
1.0055048e-05
1.0047627e-05
1.00478e-05
1.0077404e-05
1.0088318e-05
1.0073297e-05
1.0067538e-05
1.0076744e-05
1.0106046e-05
1.0135422e-05
1.0254493e-05
1.9292822e-05
0.00060744392
0.00054305556
1.2426162e-05
1.0056787e-05
1.0042114e-05
1.004499e-05
1.005029e-05
1.0056743e-05
1.0063169e-05
1.004788e-05
1.0057615e-05
1.0083301e-05
1.006091e-05
1.005642e-05
1.0086499e-05
1.0055882e-05
1.0085019e-05
1.0083312e-05
1.0145002e-05
1.7116557e-05
0.00065325647
0.00056530776
1.2300928e-05
1.005835e-05
1.0057903e-05
1.0058298e-05
1.006089e-05
1.0059617e-05
1.0044603e-05
1.00497e-05
1.0057156e-05
1.0076943e-05
1.0059437e-05
1.0095885e-05
1.0062091e-05
1.0053178e-05
1.0067086e-05
1.0086753e-05
1.0159419e-05
1.6591992e-05
0.00067540612
0.0005882104
1.2092028e-05
1.0045501e-05
1.0042889e-05
1.0039842e-05
1.0040402e-05
1.0046048e-05
1.0060036e-05
1.004921e-05
1.0079677e-05
1.0068327e-05
1.0051472e-05
1.0088801e-05
1.0057859e-05
1.0071129e-05
1.0094923e-05
1.0079029e-05
1.0234212e-05
1.8905555e-05
0.00069325473
0.00058496841
1.1885207e-05
1.00505e-05
1.0040834e-05
1.0044972e-05
1.0045211e-05
1.0043645e-05
1.005237e-05
1.0054816e-05
1.0051982e-05
1.0075691e-05
1.0048747e-05
1.0080832e-05
1.006907e-05
1.0075417e-05
1.0073966e-05
1.0081438e-05
1.0129891e-05
1.5950907e-05
0.00072265654
0.00056538595
1.1810441e-05
1.0039963e-05
1.003295e-05
1.0036599e-05
1.0037721e-05
1.0039209e-05
1.0041421e-05
1.004055e-05
1.0037119e-05
1.0050556e-05
1.0053214e-05
1.0059929e-05
1.0036013e-05
1.0106705e-05
1.0061693e-05
1.0089664e-05
1.0117304e-05
1.4550747e-05
0.00071521832