/*--------------------------------*- C++ -*----------------------------------*\
| =========                 |                                                 |
| \\      /  F ield         | OpenFOAM: The Open Source CFD Toolbox           |
|  \\    /   O peration     | Version:  1.7.x                                 |
|   \\  /    A nd           | Web:      www.OpenFOAM.com                      |
|    \\/     M anipulation  |                                                 |
\*---------------------------------------------------------------------------*/
FoamFile
{
    version     2.0;
    format      ascii;
    class       volScalarField;
    location    "0.0015";
    object      omega;
}
// * * * * * * * * * * * * * * * * * * * * * * * * * * * * * * * * * * * * * //

dimensions      [0 0 -1 0 0 0 0];

internalField   nonuniform List<scalar> 
206988
(
5073.4205
425.23957
415.95206
415.40951
415.36773
415.34725
415.33103
415.32295
415.31048
415.27718
415.23149
415.21032
415.19457
415.1712
415.14665
415.13543
415.12106
415.13583
415.20772
4760.0811
4883.7271
409.1492
406.4533
406.5982
406.88397
407.19412
407.60489
408.05638
408.62028
409.26876
409.94077
410.61986
411.13515
411.60141
411.9774
412.27917
412.67039
412.88437
413.05328
4758.4266
4832.3226
406.83159
406.61126
406.82888
407.13786
407.51946
407.90148
408.41926
408.95869
409.70977
410.4523
411.23703
411.76756
412.36091
412.75405
413.11527
413.40585
413.68794
413.92085
4756.4632
4822.4116
415.89675
415.80245
415.80836
415.78735
415.76477
415.74849
415.76409
415.64621
415.70791
415.59643
415.65417
415.54306
415.6065
415.53836
415.54389
415.53097
415.6225
415.23059
4754.8654
4820.8714
405.3834
405.55101
405.81039
406.12152
406.47776
406.91309
407.52428
408.00954
408.86157
409.58053
410.43357
410.99534
411.54899
411.96135
412.42667
412.71647
412.98249
413.2203
4753.2234
4819.264
405.35215
405.54579
405.81663
406.12925
406.51172
406.92132
407.51992
408.04128
408.88825
409.56935
410.43048
410.97611
411.57717
412.00641
412.43848
412.73331
413.01343
413.25691
4752.1073
4817.7925
415.84037
415.81136
415.7791
415.7635
415.7825
415.70899
415.78904
415.63376
415.75584
415.58166
415.71116
415.59494
415.64436
415.58587
415.5855
415.54564
415.53247
415.55549
4751.6175
4817.5738
406.37584
406.56659
406.83363
407.17606
407.57706
407.94717
408.50697
408.95121
409.78036
410.43175
411.27638
411.81145
412.44363
412.82045
413.17367
413.44467
413.68775
414.1538
4751.1102
4817.443
406.12372
406.31309
406.54657
406.83815
407.20145
407.54315
408.11089
408.54787
409.35396
409.90714
410.6913
411.1609
411.73254
412.10549
412.44759
412.69311
412.89698
413.28862
4751.5944
4817.6918
415.32496
415.30154
415.30334
415.29743
415.28687
415.26247
415.32365
415.18091
415.29802
415.14756
415.28621
415.20609
415.2583
415.21733
415.2263
415.21007
415.20062
415.26203
4753.1894
4818.8377
415.40344
415.38503
415.36755
415.35885
415.34595
415.26269
415.37738
415.19897
415.3186
415.19577
415.28598
415.19867
415.2427
415.16404
415.15944
415.14945
415.14713
415.21134
4755.519
4820.2278
406.34454
406.51616
406.73897
407.00314
407.32799
407.72857
408.25498
408.66834
409.46181
410.0412
410.80772
411.30551
411.77195
412.15548
412.50567
412.79149
413.03223
413.14445
4757.8626
4821.6835
406.71803
406.9083
407.16766
407.46319
407.80912
408.20572
408.67512
409.29128
410.01109
410.77208
411.55482
412.07996
412.63941
413.03249
413.41771
413.71956
413.9706
414.29436
4760.1619
4822.4238
416.30142
416.28971
416.27471
416.26004
416.25174
416.20865
416.23548
416.19392
416.14718
416.21177
416.26805
416.14812
416.15808
416.10084
416.08713
416.06912
416.05073
416.09432
4763.2248
4824.5644
405.96342
406.15897
406.42738
406.76276
407.13321
407.58694
408.05904
408.81862
409.4825
410.41343
411.18041
411.78534
412.35298
412.77582
413.14706
413.51644
413.74156
414.14619
4765.4254
4826.0074
406.09274
406.3179
406.58592
406.898
407.27158
407.70049
408.19767
408.94363
409.72623
410.35636
411.22502
411.93792
412.4773
412.92753
413.29476
413.61825
413.90475
414.13104
4768.4743
4826.9715
416.73437
416.70446
416.69346
416.65832
416.64754
416.62357
416.54945
416.51151
416.20424
416.88388
416.4907
416.7097
416.49377
416.54569
416.45542
416.49151
416.52011
416.35381
4771.5681
4829.2235
407.37675
407.57694
407.8183
408.1096
408.44899
408.8662
409.30518
409.78205
410.08689
411.87657
412.01194
413.0715
413.28228
413.7277
414.05173
414.4173
414.5906
414.8804
4774.2492
4830.4471
407.24064
407.4159
407.65083
407.91628
408.23866
408.61141
409.04706
409.48483
409.70186
411.44386
411.39659
412.56066
412.64715
413.12998
413.35548
413.61219
413.81502
414.05528
4777.2569
4832.2369
416.53996
416.52238
416.51576
416.49465
416.48995
416.45057
416.4236
416.39174
416.32651
416.24262
415.86002
416.77661
416.43436
416.29148
416.23372
416.25326
416.20555
416.26846
4780.3897
4833.1935
416.68738
416.67119
416.66126
416.65915
416.64242
416.62239
416.60055
416.58823
416.56695
416.52954
416.49293
416.51119
416.32891
416.67681
416.53148
416.5127
416.48189
416.48333
4783.362
4834.631
407.6584
407.84345
408.08142
408.35676
408.68805
409.09814
409.56479
410.10459
410.74683
411.44455
412.07197
412.6097
412.9901
413.62819
413.87988
414.19317
414.408
414.64204
4786.2705
4836.7213
408.05811
408.26054
408.50449
408.80111
409.15383
409.57554
410.06738
410.65172
411.35992
412.11552
412.81757
413.40269
413.85355
414.42798
414.75977
415.08716
415.34499
415.58942
4788.5543
4837.3314
417.68541
417.6699
417.65252
417.63931
417.62132
417.59131
417.56457
417.5287
417.48589
417.43166
417.38383
417.3268
417.31489
417.30075
417.30148
417.19999
417.20898
417.21601
4791.2579
4838.9543
407.27234
407.48828
407.76298
408.06442
408.43354
408.87068
409.38378
409.99766
410.72028
411.48144
412.22175
412.85137
413.35882
413.79716
414.153
414.53825
414.775
415.04726
4793.2717
4840.1455
407.38272
407.59746
407.85575
408.16772
408.53153
408.96421
409.48439
410.0896
410.80772
411.60462
412.3284
412.94017
413.45923
413.91114
414.25789
414.58434
414.87025
415.13766
4795.3472
4840.5144
417.99658
417.96427
417.95654
417.93919
417.91898
417.89536
417.85675
417.81168
417.76611
417.70749
417.65689
417.60692
417.55862
417.51708
417.49604
417.47474
417.45674
417.44674
4797.4637
4841.5855
408.54536
408.75154
408.99857
409.2903
409.63823
410.05014
410.53612
411.11678
411.79778
412.53776
413.24047
413.83206
414.33754
414.7622
415.13163
415.43457
415.70522
415.95474
4798.714
4841.9891
408.32773
408.51713
408.75015
409.02561
409.35129
409.73534
410.18926
410.72645
411.35619
412.04211
412.67238
413.20332
413.65387
414.0324
414.36001
414.63744
414.85346
415.06605
4800.0397
4841.9701
417.56678
417.55031
417.54083
417.52939
417.51331
417.49253
417.46649
417.43171
417.39761
417.35672
417.30855
417.27437
417.24537
417.21838
417.19258
417.17531
417.16648
417.15979
4801.9205
5064.1966
627.47048
84.724514
26.249549
22.588206
19.912917
22.570507
18.950045
21.900017
19.00369
21.579212
22.88576
27.120838
26.3273
27.758918
32.902972
52.091122
42.887924
109.85586
4759.9266
4884.2597
376.84694
46.394462
24.019753
19.07199
18.485581
17.45866
17.455268
17.721436
18.231467
20.644707
19.27847
24.397123
24.844154
29.293656
21.30541
32.597323
34.374903
133.12275
4758.7825
4831.4143
200.62946
36.172804
29.55646
26.640065
28.053044
27.018543
27.893432
24.929041
26.738228
25.758317
23.549012
21.94755
26.987805
30.910849
23.503896
32.650955
28.643897
114.49161
4756.9341
4822.626
151.93494
22.94943
21.352144
21.34251
22.014422
22.099866
22.38047
22.73319
17.859938
18.100565
20.755763
25.213462
22.337345
28.292852
22.124012
42.832028
23.097943
163.43094
4754.8399
4820.1547
126.36742
16.886133
14.86701
15.799566
15.254677
15.745454
15.699853
18.055119
17.346559
22.667069
18.171123
25.334951
22.271051
28.051685
26.929186
46.612607
35.996398
190.38979
4753.837
4818.7687
153.18078
26.309632
25.288052
25.114378
25.588049
26.325798
26.866399
25.135794
24.686151
25.441203
25.268201
25.021282
29.289691
34.047564
29.264316
42.067026
36.294981
134.22428
4753.1502
4818.0795
132.50392
21.40195
17.380203
15.697305
15.74316
15.537623
16.750771
17.976747
19.17291
19.360203
20.657043
22.447592
23.606914
28.490691
23.790936
36.167714
29.461528
248.036
4751.8064
4817.2066
102.59498
14.731537
12.089035
13.172729
11.918839
11.688867
10.951446
14.136866
17.315522
17.13157
17.701926
17.370428
21.166608
20.789959
38.494795
39.551249
46.626864
212.04873
4752.0443
4817.2183
110.94517
21.877206
20.828645
21.172219
20.886246
20.228781
19.476991
20.725645
18.788453
19.212874
21.676092
20.071905
23.298869
21.919852
34.851135
42.420526
44.656842
219.15917
4752.1395
4817.65
125.33343
17.030869
15.903747
17.07312
16.908435
17.198533
16.111864
17.116497
16.870262
20.717397
26.006633
24.824336
26.941551
30.464216
37.177345
37.630377
40.455852
232.54224
4753.3371
4818.9681
109.40382
15.576734
16.23592
15.774807
15.483487
14.737243
17.545453
17.932684
18.336973
17.435335
19.216394
21.959524
26.092022
25.14847
33.375855
36.064281
38.626712
284.52778
4755.6942
4819.6945
102.68209
13.870841
12.651174
12.745775
12.159866
13.443761
12.684176
13.905336
14.743815
16.647115
17.323805
19.076208
20.661028
22.292534
31.58499
29.728665
34.219993
210.74041
4758.6125
4821.2981
102.68506
17.636646
16.878769
16.675436
16.910052
16.684874
16.705219
16.380319
16.097991
17.026124
16.663407
18.638808
20.977491
23.116732
32.894328
28.041811
31.120557
222.07907
4760.8526
4822.7074
106.46282
15.029555
14.186897
13.604614
13.615373
13.670414
13.065489
16.039508
16.163684
14.836322
17.1652
19.803662
19.685739
27.571202
31.944299
32.799846
38.829824
266.48762
4763.4346
4824.0515
95.494349
12.410163
10.425903
10.665893
10.842932
10.636301
11.818469
11.763126
12.287876
13.771086
15.651847
19.940884
20.816081
24.933497
26.037782
29.12331
35.08833
206.89977
4766.5779
4825.4714
97.679656
15.067315
14.898314
15.107406
15.169508
14.481919
14.907155
14.826744
13.611595
16.113948
14.983143
16.839045
18.710399
21.352098
24.538283
25.631126
30.392627
199.67145
4769.3484
4827.0864
108.75502
13.349108
12.210618
12.577192
12.362027
12.448501
12.983643
12.756584
14.236475
15.195253
15.776716
17.007158
19.924479
23.093044
27.635115
29.072137
35.609477
230.54244
4772.0121
4828.4751
91.280789
10.208683
10.407377
10.152435
10.513305
10.843845
10.138736
10.539859
11.870312
13.222347
14.230991
17.424915
17.579238
19.981445
21.655244
25.906488
31.531951
217.31615
4775.0249
4830.0904
97.094405
14.193683
13.271106
13.027174
13.073951
13.582561
13.540964
13.195893
13.370026
13.580032
15.175119
15.016266
18.285709
17.759056
20.602296
23.28211
28.044487
213.72868
4778.0034
4831.6402
96.46195
11.955998
11.379527
11.938085
11.520532
12.170617
11.776635
12.464193
13.805229
14.50653
15.36586
16.646891
19.498839
20.26393
22.589203
22.108322
34.121602
214.27778
4780.2519
4833.4823
94.018086
10.733844
10.135761
10.333672
10.472358
10.289684
10.489942
10.448949
11.073465
11.093472
12.688739
13.416875
15.779912
14.485595
21.037925
21.31076
33.28647
178.9082
4783.273
4834.4142
94.308154
10.78963
10.542528
10.416061
10.385153
10.756074
11.408365
11.157845
12.660929
13.522024
14.982853
15.504413
17.254598
17.339379
20.825121
22.125508
31.826814
215.03236
4786.5608
4836.0194
100.5598
12.180097
11.437214
11.539142
11.629785
11.605627
11.822918
11.638463
12.58476
13.171597
14.169485
16.167753
16.90255
19.485709
20.495074
21.816271
31.661056
204.59435
4788.9007
4837.5517
96.369203
10.986102
10.29432
10.342038
10.676757
10.731311
10.601478
10.5697
11.126436
11.506412
12.278389
13.193762
14.443178
16.716127
16.577723
18.362808
29.0395
193.54829
4791.153
4838.5091
97.467585
9.2224987
8.3197655
8.5014416
8.4286686
8.7298667
8.5717402
9.6289206
9.1003691
9.7384774
10.180283
10.692184
10.360801
12.166844
13.335755
13.789986
26.43947
192.44665
4793.8098
4839.5584
105.43224
11.031997
10.315266
10.197139
10.146681
10.170365
10.321201
10.644532
10.797143
10.975575
10.937053
11.486868
11.37416
12.049033
12.373864
12.779471
25.578463
189.87568
4795.8996
4840.5071
98.975385
9.992667
9.2226463
9.1562609
9.1730368
8.9432354
9.2082789
9.2608147
9.9317299
10.11152
10.355321
10.846814
11.134845
11.701595
11.843047
12.870758
17.6375
195.64193
4797.3898
4841.1262
104.60808
9.5032363
8.7016564
8.7220594
8.6854609
9.1221899
8.8510646
8.9454042
8.9420691
9.339271
9.7042162
10.212578
10.816793
11.1276
11.48437
12.183285
15.509113
195.82929
4799.2355
4841.6027
108.82174
10.445718
9.6041359
9.4896796
9.3477319
9.3403701
9.6833268
9.3420266
9.5523916
9.739072
9.9189583
10.228917
10.585233
10.790895
10.905941
11.19246
14.04476
190.5943
4800.6243
4842.0769
113.98694
9.6896658
8.6097307
8.6490345
8.7073122
8.8006663
8.8112605
9.5725537
9.6261669
10.247895
10.557591
11.346602
12.59537
12.884177
12.633224
14.103181
16.353061
192.02185
4801.6063
5069.1134
688.00677
79.574675
14.365821
6.1295769
9.9552845
6.5659364
3.8631516
3.0823465
3.1536637
3.3412717
6.0142073
8.4871713
10.885974
10.466899
14.343946
28.526276
19.248196
191.33064
4760.2117
4884.6078
396.34551
35.229121
8.9657055
11.861021
10.058818
10.286194
9.1543449
2.5227077
3.6607854
7.7684744
7.3433441
9.6466022
12.158508
17.895272
14.600543
20.64231
10.345139
148.51838
4758.8429
4831.9559
229.33492
15.180764
7.618218
9.7978229
9.3093495
7.6496208
7.9965792
7.9177805
5.5024926
4.5406586
6.4327935
7.3237672
9.63117
9.6098364
12.233393
12.962576
14.369232
142.6957
4756.7338
4822.6728
140.61488
11.888191
6.5756602
6.8785412
8.3466833
9.3531803
8.4953791
8.4327046
8.9706354
6.6379488
6.2335718
4.3767269
6.751956
13.41546
9.3356947
18.483859
10.452542
111.81587
4755.6574
4820.7899
133.23541
7.6748751
7.7686404
7.0141288
5.7685403
8.7973215
7.2191875
4.6487006
6.4030215
8.6762164
9.9263149
6.4151049
11.364934
17.631814
17.606532
17.673352
23.323104
162.4289
4753.5922
4819.2348
144.53269
7.2171661
5.9802183
5.8369295
4.8848193
5.4869097
4.6989872
5.6063682
3.7328273
6.7438994
6.4073978
5.7651417
18.371394
12.292409
22.56094
15.517356
28.361181
218.1352
4752.625
4818.171
130.62786
4.9484929
4.2213756
4.8071337
4.0207731
4.9664884
5.4446556
5.4047072
5.6554504
8.0240104
9.1215386
8.7262505
16.749333
14.191991
20.749763
20.674932
25.384188
211.02858
4752.0439
4817.8585
111.23265
6.0905825
5.0557562
5.1038518
5.7422725
5.8397065
6.3343657
4.0277001
5.9325971
7.3330344
7.8485055
9.9048321
11.663877
20.267015
19.521289
15.122453
35.807922
168.93369
4752.5658
4817.944
115.62833
5.4258364
4.1648649
6.3694636
3.8545715
4.8471157
5.0822663
4.4093173
7.6049562
6.0750125
7.102071
7.6005512
10.637298
19.115769
13.819161
14.447779
26.662401
260.47741
4752.1454
4818.0632
101.34026
5.551178
4.9811756
7.0276198
6.2791908
4.1812535
4.1982222
5.9309463
6.3050313
4.9547522
5.4755446
10.84246
11.425195
23.428723
15.123935
14.450967
35.499848
286.82264
4753.7657
4819.0331
97.470691
3.3322482
3.5614778
4.2835988
2.6765668
2.5521503
2.4337865
4.7867715
5.6276392
7.8648244
9.7432185
8.6772387
12.971195
17.215631
17.740552
18.107159
33.10773
214.57399
4755.8016
4820.5111
94.90962
3.6765766
3.3598117
2.7165691
1.8335613
2.2384357
3.8540684
5.8002943
4.1734985
9.1509529
7.3046916
8.9484751
14.379231
13.789813
15.198212
20.560206
25.354502
216.58503
4758.3461
4821.7808
97.059941
3.6014873
3.1349424
3.3442776
3.5948953
3.5543409
3.6987916
5.2398062
5.7792402
6.0520905
6.9888692
6.0021979
14.460898
17.189979
17.880174
20.726987
20.468751
187.19182
4760.7577
4822.7917
89.350204
4.5131005
2.1833468
2.7715548
2.8335542
3.0563624
4.7232871
4.8985862
4.3425623
5.9652427
6.0623321
9.1067733
11.183389
13.76106
13.526123
21.413547
18.809228
286.06922
4763.5295
4824.2515
92.522943
4.4769471
2.1977498
2.6079531
3.4729035
4.0244582
4.0855294
3.8761011
3.980141
5.9261276
4.665565
8.9151597
9.7699497
9.623449
10.449844
16.412776
19.515411
228.12038
4766.4108
4826.1063
92.533022
4.0806458
2.6348906
3.6369996
3.8054462
3.6627382
4.894468
4.8461795
5.4727365
5.6965779
7.385005
9.0847186
9.8591321
9.2505264
13.977553
15.944197
22.538287
193.31057
4769.0094
4827.1499
88.038638
2.7137349
2.7504974
2.8802229
3.3953963
2.7599247
2.9183914
3.033027
3.5358374
6.9613755
7.849141
8.8108002
11.504956
8.5396419
10.865779
12.547566
18.165221
217.47305
4771.9912
4828.7273
88.661452
3.3244773
2.016391
2.0411971
2.3319835
2.8750434
2.3989703
4.5449332
4.9563929
5.0552314
4.752561
5.4058663
6.4138569
7.6436762
7.4446699
13.020463
15.720115
205.77995
4774.8702
4830.3632
88.338815
3.7717767
3.0270339
2.8136084
3.6555142
3.5331758
4.2395646
4.6989864
5.1289038
6.2168443
4.2007188
6.0776213
10.448581
11.237016
10.121517
13.221039
16.006194
247.23812
4777.6538
4831.9384
88.434948
2.8758838
2.2456245
1.8255197
1.8672572
2.1108765
2.3098044
2.4070283
3.2457533
4.3304684
4.4225472
8.0845552
9.5675124
9.126673
8.8482621
10.341257
15.907203
192.85807
4780.5576
4833.2306
83.914211
1.9794702
2.2035907
1.9204361
1.8056796
2.601906
2.9402383
2.4342505
3.2427699
4.6169355
4.7085493
5.2107854
6.9500501
8.4999249
9.6367722
11.761404
19.171833
178.71282
4783.6576
4835.0298
88.744975
2.2496667
2.0074617
1.7162712
1.3383652
1.5075448
1.4350121
2.3014344
3.0325671
4.5199505
4.6655432
5.7163391
6.9336013
9.3294885
10.685022
11.397541
12.957135
222.83577
4786.2996
4836.4576
90.626706
3.3445363
2.1869407
2.4969689
2.4720378
2.3044659
2.9610148
2.9217886
2.3715932
4.0985845
3.6706378
6.1430999
7.1306746
8.2672688
9.7597862
11.035482
17.125006
198.30062
4788.9737
4837.4352
88.327103
2.8140282
1.9981182
2.0782257
2.0451149
2.1345644
2.0816654
1.9976695
1.7292975
3.5519545
3.6514577
5.5828591
6.4753577
8.4644914
12.682328
11.644334
20.546076
188.3703
4791.2972
4838.9728
99.354295
3.0927566
2.4089402
2.4479537
2.5231937
2.8620633
2.7016961
2.5152789
3.3023726
4.165072
4.900186
7.1405843
8.2009618
8.8466781
11.464693
14.703161
18.125402
189.01357
4793.4954
4840.014
94.619987
2.301017
1.4337111
1.5890416
1.5589631
1.8961035
2.2249589
2.083158
1.8182858
2.7533508
3.707731
4.9606075
6.5187142
7.4035205
8.8632373
11.109757
18.551895
189.27472
4795.6051
4840.5149
96.402544
2.4593886
2.3218391
2.4635896
2.0585758
2.4061536
2.6674446
2.6530252
2.2236493
3.3370935
3.6125142
4.1003269
4.5347881
5.2208461
7.0339779
6.2648858
12.82659
189.94621
4797.4982
4841.4876
96.692669
3.0994667
2.4169546
2.5587904
2.5199884
2.5708842
2.6836568
2.9696404
3.4921274
3.9168318
3.4275248
3.3937167
3.7268043
3.7766416
4.0359505
4.987569
7.4256601
190.32844
4799.0234
4842.0799
103.82415
2.7815611
2.0789026
2.0512861
2.1915453
2.172901
2.1198165
2.1447002
2.2841062
2.6165969
2.4143659
2.4289959
2.944234
3.136874
3.0907195
3.4808046
6.6379906
190.69734
4800.3629
4842.2462
107.9054
2.7059648
1.8157038
1.4805412
1.570325
1.7170868
1.8877152
1.7464597
1.7630727
1.8032529
3.6036935
4.4004957
5.8082273
4.9243439
5.9233756
7.0026998
11.756459
188.852
4801.8539
5073.7125
661.73657
81.475603
12.656976
10.869233
5.8638217
7.0391395
4.4484296
6.674312
2.6387717
3.3087356
5.3816645
6.5033641
7.3294011
15.358293
18.661618
32.320696
30.081146
189.74975
4759.9387
4885.8587
391.42972
35.220643
9.8101592
10.875014
10.005026
5.4928386
9.05996
3.8119448
2.2308457
4.2951875
4.7115023
12.800755
9.2115681
14.996173
12.471879
18.780549
23.591354
128.08098
4758.2585
4832.1385
248.55216
14.373831
8.5494151
6.8265565
6.368309
5.4071634
9.4404178
6.6775793
4.6062006
3.7108876
6.1544878
8.6709674
7.5495426
5.9644447
11.88694
11.405299
10.596501
144.02359
4756.6733
4822.655
153.37286
9.3854436
6.7904646
5.8660556
8.3454947
6.5860137
8.9814411
4.5631586
6.8615794
8.2525594
4.4084023
5.2218284
14.143027
15.835804
13.744972
21.160616
16.880323
187.03704
4755.2235
4821.0876
127.93132
5.7876532
4.5055509
5.3875483
6.6048558
7.875405
9.019826
6.8639689
8.8440226
5.2956252
7.6945471
8.7866278
10.260086
14.184479
17.320257
18.953958
13.770318
128.17395
4754.4297
4819.8695
112.36682
4.0095826
2.8487661
6.3097637
4.9766353
6.5944096
7.8815215
6.7418517
5.7310635
4.3118134
9.4068605
8.3723141
9.3272147
12.382774
16.460142
26.053937
29.057677
280.33117
4752.4464
4818.4316
102.45889
3.637491
3.2814438
1.9948193
4.9133211
6.9997499
8.0926219
5.6672255
6.2049298
6.5733466
10.191211
10.385348
7.5870439
14.31416
16.311514
23.765356
26.287177
192.92247
4752.3757
4818.3613
104.75461
2.7844897
2.0826509
1.7386482
2.9081888
4.4509347
5.2890864
3.7005655
6.3144188
6.5717146
11.921349
12.070528
12.109791
16.767694
12.841214
13.814835
27.176536
242.00672
4752.1096
4818.5434
92.638193
3.2444702
2.8645137
3.2884319
2.8080309
3.451488
5.3243989
5.7399612
5.2747104
7.9526273
9.2645414
11.332319
11.268987
11.497148
19.675476
19.088828
33.842232
194.00907
4752.6747
4818.6176
90.90897
2.4212324
2.6200821
2.8577118
3.2238735
5.1018839
4.856802
3.9245027
4.2292547
7.7025534
9.6039121
9.5984849
11.728995
11.444994
17.421777
20.912919
32.45261
255.69586
4754.0258
4819.4496
96.134995
4.5706645
2.8776725
2.7750142
3.3093493
4.0357499
5.2495605
3.3627375
5.3597551
8.704611
7.9770614
8.0406629
12.132303
11.249436
15.189344
19.148925
25.423903
211.92769
4756.2532
4820.8675
94.47144
4.6680574
4.3737025
4.775134
4.9176262
4.9720663
3.3993644
3.4480642
5.698397
7.8092544
7.7069967
10.982052
9.7535458
10.957426
11.979604
15.764819
19.785265
247.60691
4758.462
4822.2621
94.230824
3.7523661
3.3414275
3.0441493
3.3644949
3.9407517
5.5781067
4.0771553
7.613708
7.5079424
6.8191355
10.853642
11.522485
13.638053
17.295414
16.878749
29.603051
278.78391
4760.875
4823.121
88.723256
3.6430156
2.5925424
3.1366998
3.3741355
3.488591
4.4408103
4.934853
4.7985601
8.2565393
6.4894262
10.019107
10.930225
13.831621
15.141264
16.560358
20.016334
228.88438
4763.8836
4824.905
90.172583
3.4050722
2.3008529
2.7242925
2.6811999
2.7599052
3.1607246
3.8742107
3.0497982
6.7456355
6.5903987
9.1590993
5.971099
13.580358
10.77802
13.800773
18.609834
198.40865
4766.4543
4826.5398
87.836302
2.4971504
2.0419451
2.8424327
3.4123372
2.8387779
3.1534734
4.257545
4.2193074
6.3251663
6.7401084
9.1160047
9.7758174
9.2607802
11.934609
17.99372
20.430287
214.86597
4769.2262
4827.3667
88.22984
2.5154919
2.4446152
2.3773971
2.2128476
2.5589318
3.1448629
2.8242643
5.0469528
6.2985603
7.2918916
8.0362041
10.980611
12.40651
12.381719
14.216175
20.914123
213.0308
4772.1779
4829.0316
92.209307
3.870355
2.9078521
3.5042004
2.5435797
4.2402006
4.2392578
3.7275259
4.6552315
4.4686212
4.6830049
5.9721266
9.9447195
10.166492
10.983094
14.197457
13.949183
210.86589
4774.7593
4830.7331
86.499544
3.2271874
2.4711169
2.9159569
2.2038278
2.7633877
3.4575524
4.5408927
3.179912
4.4701141
4.7138012
5.5324742
6.4655505
7.8486581
8.585254
11.720909
16.166144
173.7582
4777.7403
4831.9259
101.58217
2.6786425
2.3575201
1.9353104
2.2569781
2.574163
2.234027
2.2458483
3.2790271
4.5468426
5.5305277
8.004824
8.2998724
7.9732915
10.154423
10.786738
16.291748
186.67554
4780.8533
4833.4991
87.950493
2.5770589
2.2480398
2.2588775
2.2088998
2.9058695
3.2124198
3.2902507
3.99169
4.7296753
5.771119
6.9121744
6.533425
9.30653
11.948694
12.48447
14.928869
195.7783
4783.5605
4835.2375
98.261149
2.8121859
2.1005579
2.7036235
2.5208164
2.7081974
3.0553801
2.1243119
2.6658131
2.8791843
4.0870483
6.2475802
5.8671176
7.8640973
8.1991046
9.0783389
12.974844
201.89602
4786.2787
4836.5326
101.78093
3.1851617
2.1100791
2.2246163
2.0459261
2.0037122
2.4926185
2.9289296
3.2557939
3.8840246
4.1994277
4.3593672
4.9658245
8.6658861
8.7511725
10.002809
17.325033
194.44354
4788.8279
4837.4345
90.01225
2.5293398
1.8126708
2.0677931
2.0216783
1.9332106
2.281047
2.5362516
2.3585978
3.5943454
5.0273977
6.0048515
7.6519099
10.272111
10.42859
12.023534
19.640573
189.03477
4791.3499
4839.0634
99.428669
2.1261948
1.1076654
1.6633246
2.0976025
2.0130805
1.7026749
2.0429108
2.6565842
3.394824
5.229751
6.5872488
7.9559336
10.347755
11.654783
12.164103
19.400508
189.2148
4793.4044
4840.0939
97.080032
2.2805448
2.3268068
2.0326226
1.7964774
2.5175079
2.8193607
2.9351675
2.7837795
3.8951487
5.2382462
6.2097826
7.1322263
8.9438136
10.648369
12.157033
17.139683
180.9996
4795.5173
4840.5586
92.708045
2.817369
2.3681325
2.4506676
2.3699493
2.2556166
2.7453675
2.8658099
2.5919651
3.880979
3.8426874
4.671688
5.1368429
4.6836972
5.6900976
7.4618747
13.673293
188.52226
4797.553
4841.6211
103.09353
3.0183728
2.2364539
2.1168871
2.1568594
2.1929257
2.3213613
2.288264
2.2507744
2.5167449
2.7142777
2.5079706
2.7789061
3.0816856
3.5145528
4.4227118
7.692969
187.77992
4798.9076
4842.1882
99.125443
3.0920816
2.2766048
2.1650357
2.1013801
2.1445917
2.1275516
2.4206422
2.5873144
2.0256544
2.3672996
2.5520268
2.6515222
2.9568318
3.2107676
3.6515352
6.4062631
187.96558
4800.3305
4842.3094
108.55413
2.7578419
1.9789252
1.9111656
1.9420828
1.9832012
2.0356638
1.7916411
1.8426624
1.5835013
2.9020912
3.825773
4.7643124
5.1839185
6.2149336
7.1117467
10.263302
189.18251
4801.8938
5077.8113
694.32562
76.511987
14.318161
9.6878444
10.126535
5.4096757
5.0883693
5.9823263
3.1928547
4.8537738
3.3998558
7.9791333
5.4575457
11.034922
14.539023
30.164386
26.372055
143.85163
4759.2466
4887.3621
375.25178
33.914486
16.697524
12.334471
8.5254076
7.3645901
8.1817166
2.749787
3.8034611
5.64528
3.6871143
7.316407
5.4034283
4.563653
8.2764968
9.6029849
17.762661
183.5516
4757.7361
4832.4616
244.23106
14.79203
11.560913
11.592325
9.6450642
5.7635843
8.4877891
8.6654918
6.8797852
4.9403926
6.7224194
6.8117903
4.3088259
11.588247
11.684064
22.755552
17.887151
122.07961
4756.4096
4822.6635
139.09145
6.7465164
6.8327729
6.8270008
6.84872
9.1639859
7.5480442
8.3887934
5.5407501
8.4861416
6.4006711
9.6524954
9.6865366
18.538521
13.498038
22.114818
19.500916
173.49193
4755.1858
4821.4618
124.55955
5.3398255
4.2031065
4.2066647
6.1770268
8.3625366
6.0754615
6.2131962
6.3800895
7.2606433
9.093534
10.325503
15.153552
15.26287
13.279144
30.065644
25.676212
158.66739
4753.8244
4820.0879
117.06729
6.2616863
5.0454286
5.1360186
6.3402807
5.0498566
6.7410173
8.5335508
9.081141
10.077551
7.1643194
7.2569786
10.930281
12.698595
14.135647
30.603012
20.438372
181.33113
4752.3553
4818.8123
97.997696
3.8435277
2.2009545
4.8339521
3.1709067
6.1487084
4.1081954
7.2890646
6.5085987
8.2364645
6.7806396
7.9154472
10.541781
16.149715
13.122088
26.305452
31.045429
217.59048
4752.5124
4819.0234
116.37666
3.3256105
2.4806601
3.9950215
4.8356788
3.4484934
4.615155
5.2683423
8.2537285
6.2864385
10.056813
7.8002453
13.924414
17.084205
13.380566
12.636432
27.09624
228.54771
4752.4087
4819.1013
106.69071
4.6281801
2.4528173
4.1437666
4.3466136
3.4196949
2.9079227
3.46609
5.4808163
7.6950007
8.113751
7.7051186
11.153328
17.772841
12.908177
12.604663
26.44869
207.97045
4753.2633
4819.2367
108.51633
3.1825115
2.9288912
4.4097685
3.7010226
4.9883131
3.7151122
4.549288
6.8593167
5.3994999
7.9442374
9.1959379
10.298598
14.823338
21.215141
17.225153
20.156146
256.01876
4754.5167
4819.9807
102.73314
3.9315507
4.1313903
4.1335002
2.9957299
3.9504835
2.3689135
3.291781
3.6020904
8.4049137
6.7962299
7.2123526
9.9985086
11.601301
17.760872
15.719657
30.413422
255.04696
4756.4446
4821.2658
89.391809
4.2355221
2.8015117
4.2407496
4.1108542
4.2255177
4.9584766
2.7483812
3.3013956
5.7110265
8.6082759
10.910534
12.08115
15.725693
16.458883
11.37116
21.62113
255.27408
4758.7382
4822.6899
95.250061
3.3522136
2.6708136
2.5978889
3.3326541
3.6179296
5.1207446
3.0638146
4.4008505
6.37038
7.4822015
6.6602671
8.0288217
11.017709
10.29076
13.41537
19.234905
223.48019
4761.1183
4823.5507
99.475612
3.9536468
2.6818787
2.8090233
2.2179985
4.1690382
3.9821259
3.8200111
4.2592201
7.1597432
5.8819335
6.5626803
10.804685
11.051378
15.140756
20.179538
24.794795
225.68305
4763.926
4825.2073
88.080398
2.4120772
2.2434125
2.6636375
2.7838603
3.1319873
3.8991748
4.5819223
4.2037823
5.0455031
7.5316939
6.4960719
10.189544
8.6457805
9.9559878
14.931825
14.490231
204.6918
4766.7283
4826.49
95.27568
3.4072839
2.8777364
2.8131564
3.2909241
4.09938
2.966481
3.9048961
4.432577
3.8427892
5.9577978
7.0029389
8.2420631
8.5324456
9.4819889
14.335636
17.932343
216.11173
4769.3192
4827.2408
91.739476
2.7099394
2.732547
3.6444319
4.0146252
4.0378614
3.9401488
5.1900314
5.4147875
5.5876639
5.4044438
8.8689545
9.279542
11.149066
14.561476
15.762366
21.893196
183.59956
4772.0678
4829.2784
90.06106
2.2990564
2.6343232
2.0699484
2.3392298
2.0963863
2.3620578
3.3725869
3.3965156
3.215217
4.6181701
6.6018273
8.3310264
8.9724751
9.3803902
10.852735
13.109814
210.79114
4774.7255
4830.813
85.204134
3.043733
2.1848036
2.269472
2.2788107
2.2608386
2.2135427
2.5982856
2.6991031
3.8912834
5.1141613
6.2014199
5.9378219
9.0635426
10.808455
13.185256
19.357946
193.26427
4777.6888
4831.6058
86.347797
1.9137716
2.1413157
2.2938344
2.6376964
2.9630142
2.701778
2.4923368
3.3197618
5.7215389
5.8500703
7.6858477
8.3207154
9.431589
12.212212
12.627352
17.83217
187.24696
4780.8592
4833.7975
84.729232
2.8756775
2.2384985
2.5807821
2.7464617
3.0214807
2.6917585
3.7250663
4.1194788
4.2245181
4.2392635
6.6675026
6.9200888
7.2279594
7.2882285
9.4664354
11.76008
213.6831
4783.319
4835.2137
95.703042
1.9600146
1.7684099
1.9296186
2.0649737
2.2471111
2.1569514
2.4037041
2.4345057
3.9050435
4.0840241
3.8154421
5.4664942
8.2263741
7.3866728
10.217481
11.287759
199.3766
4786.1033
4836.4368
89.03045
2.5223693
1.7976541
1.893516
1.9182049
2.0365461
2.1444507
1.921728
2.0301551
2.942042
4.0549157
5.4877285
5.9619549
6.4340242
6.2099437
8.07573
18.105443
187.07274
4788.6328
4837.4123
88.370255
2.6960721
2.0110808
2.119427
2.0959117
2.167661
1.792683
1.9784909
1.5535878
2.6731346
3.251286
5.2233104
6.7548906
8.2271489
9.4705706
10.905491
19.534409
188.18919
4791.3007
4839.0878
97.779943
2.508065
1.5837489
1.7660686
1.6955251
2.0299379
2.1128476
2.095174
2.499965
3.4031815
4.3466596
7.0885534
8.1966776
10.001826
12.134954
13.235185
18.07301
187.78088
4793.1839
4840.0207
94.90512
2.501312
1.9357614
2.3078869
2.3663156
2.3006224
1.9676873
2.3005966
3.2405817
3.946581
4.441753
5.143869
6.7266925
7.5089623
9.1988776
10.595696
17.430483
187.93482
4795.2944
4840.3879
100.06988
3.0557647
2.2399792
1.9994041
2.1318637
2.1144662
2.3743114
2.8173304
2.9983211
3.7740119
3.972841
4.4217412
5.0086332
5.9662578
7.6689077
8.2584493
10.783676
186.77687
4797.4629
4841.6079
99.922351
2.4576131
1.8099199