/*--------------------------------*- C++ -*----------------------------------*\
| =========                 |                                                 |
| \\      /  F ield         | OpenFOAM: The Open Source CFD Toolbox           |
|  \\    /   O peration     | Version:  1.7.x                                 |
|   \\  /    A nd           | Web:      www.OpenFOAM.com                      |
|    \\/     M anipulation  |                                                 |
\*---------------------------------------------------------------------------*/
FoamFile
{
    version     2.0;
    format      ascii;
    class       volScalarField;
    location    "0.0015";
    object      p;
}
// * * * * * * * * * * * * * * * * * * * * * * * * * * * * * * * * * * * * * //

dimensions      [1 -1 -2 0 0 0 0];

internalField   nonuniform List<scalar> 
206988
(
102165.55
102165.19
102165.75
102164.37
102165.3
102164.8
102164.78
102163.57
102163.22
102162.1
102161.96
102158.75
102159.77
102157.48
102159.05
102157.21
102157.41
102156.89
102156.22
102156.55
102208.07
102207.36
102207.04
102205.54
102208
102205.37
102204.2
102200.52
102201.12
102194.36
102193.6
102178.79
102189.93
102179.75
102185.89
102181.76
102184.28
102176.59
102183.74
102178.59
102236.84
102237.12
102236.54
102236.11
102235.6
102234.59
102233.79
102216.76
102242.74
102205.38
102232.57
102189.92
102222.24
102193.12
102213.83
102196.68
102207.47
102198.4
102203.84
102200.48
102258.05
102258.12
102257.83
102257.53
102257.03
102256.28
102256.93
102229.04
102268.43
102217.65
102257.22
102202.05
102236.01
102206.78
102226.02
102210.69
102219.26
102212.55
102215.86
102214.03
102272.83
102270.97
102270.67
102270.5
102270.09
102269.2
102272.18
102233.53
102283.96
102222.7
102271.35
102207.75
102243.47
102216.07
102229.58
102219.91
102223.5
102220.2
102221.57
102219.44
102274.73
102274.95
102274.24
102273.43
102271.84
102268.45
102282.73
102235.29
102289.65
102221.89
102276.94
102206.14
102245.07
102216.2
102230.11
102219.34
102222.38
102220.14
102219.05
102218.52
102270.56
102270.49
102270.1
102269.05
102267.37
102262.53
102283.37
102230.13
102285.33
102214.38
102272.69
102199.09
102238.15
102207.52
102221.56
102213.16
102217.03
102211.84
102208.79
102208.22
102262.1
102262.33
102261.27
102260.7
102258.89
102253.6
102277.83
102220.65
102278.81
102199.44
102265.58
102189.62
102225.27
102190.03
102207.6
102197.63
102201.11
102196.76
102194.06
102194.02
102240.45
102240.3
102239.71
102238.64
102236.82
102229.96
102253.53
102198.29
102257.96
102175.3
102246.21
102171.74
102211.76
102174.83
102195.71
102178.82
102180.94
102183.32
102177.94
102176.85
102210.33
102210.27
102209.75
102208.67
102206.78
102200.32
102220.55
102171
102227.38
102149.37
102218.82
102144.27
102175.79
102145.59
102158.15
102148.24
102149.88
102146.41
102147.23
102146.75
102170.83
102170.73
102170.23
102169.22
102167.37
102163.62
102180.62
102122.11
102189.96
102114.76
102176.97
102106.27
102136.77
102104.07
102118.53
102108.82
102111.32
102108.36
102109.12
102108.42
102124.39
102124.47
102124.33
102124.31
102124.92
102127.29
102138.57
102111.71
102115.24
102061.67
102128.86
102059.61
102084.32
102065.49
102069.34
102062.08
102063.16
102062.29
102063.02
102062.52
102070.39
102070.37
102070.15
102069.72
102068.93
102066.15
102067.73
102057.31
102076
102020.7
102068.86
102003.78
102029.79
102009.94
102018.24
102011.03
102013.63
102011.15
102012.16
102011.51
102008.81
102008.82
102008.66
102008.33
102007.66
102005.88
102012.3
101984.15
102001.53
101984.72
101995.15
101947.41
101973.5
101952.38
101961.6
101956.36
101957.81
101956.22
101957.36
101956.91
101939.9
101939.89
101939.7
101939.28
101938.42
101936.44
101934.63
101935.53
101929.94
101920.8
101932.76
101890.85
101911.72
101897.99
101904.01
101899.74
101893.91
101897.42
101896.8
101902.53
101863.76
101864.79
101864.78
101864.18
101863.75
101862.42
101862.7
101861.37
101859.88
101844.9
101868.1
101836.67
101845.87
101834.05
101840.62
101835.38
101840.1
101837.96
101837.63
101837.57
101788.46
101787.98
101789.14
101787.72
101788.58
101787.29
101787.39
101784
101787.51
101786.19
101785.9
101779.19
101778.67
101777.43
101777.73
101775.99
101775.04
101774.81
101774.38
101774.38
101712.6
101712.6
101712.66
101712.75
101712.8
101712.52
101713.33
101708.74
101713.11
101711.82
101713.14
101712.46
101711.76
101713.06
101705.22
101704.48
101710.6
101709.93
101710.89
101711.22
101637.13
101636.3
101638.01
101636.95
101637.77
101637.49
101638.61
101636.99
101638.11
101638.71
101642.18
101640.15
101642.69
101643.69
101641.76
101640.13
101642.89
101642.88
101643.28
101643.14
101562.8
101562.82
101562.87
101562.91
101563.28
101563.6
101564.4
101564.28
101565.66
101565.29
101572.33
101569.52
101574.2
101575.72
101574.88
101576.06
101573.81
101576.79
101575.08
101576.39
101490.26
101490.28
101490.52
101490.24
101490.81
101490.79
101490.96
101492.09
101493.21
101492.13
101503.12
101499.79
101509.17
101508.48
101508.22
101509.82
101509.24
101510.76
101510.92
101508.72
101419.5
101419.59
101419.58
101419.03
101419.99
101420.21
101420.92
101421.92
101423.17
101426.45
101431.51
101434.73
101435.3
101440.29
101442.35
101443.68
101447.62
101438.15
101445.24
101444.53
101351.56
101351.6
101351.89
101351.65
101352.57
101353.01
101354.06
101355.65
101358.05
101361.69
101366.46
101370.14
101373.98
101376.84
101378.58
101380.54
101380.67
101381.16
101380.47
101380.87
101287.2
101287.27
101287.62
101287.54
101288.47
101289.28
101290.66
101292.7
101295.69
101299.84
101305.28
101310.11
101314.43
101317.44
101319.74
101322.94
101319.47
101322.09
101322.35
101323.22
101227.84
101227.96
101228.43
101227.94
101229.18
101230.16
101231.86
101234.32
101237.89
101242.76
101248.63
101253.81
101259.02
101262.72
101265.39
101267.54
101267.83
101268.89
101269.23
101269.54
101174.42
101174.56
101175.09
101174.59
101175.73
101177.01
101178.93
101181.75
101185.75
101191.27
101197.9
101204.17
101209.38
101213.34
101216.34
101218.12
101219.4
101220.1
101220.77
101221.18
101127.69
101127.85
101128.33
101128.34
101129.36
101130.72
101132.81
101135.87
101140.23
101146.19
101153.33
101160.12
101165.68
101169.96
101173.18
101175.34
101176.83
101177.75
101178.32
101178.71
101088.48
101088.62
101089.09
101089.28
101090.26
101091.68
101093.88
101097.08
101101.62
101107.8
101115.22
101122.27
101128.05
101132.54
101135.91
101138.27
101139.87
101140.87
101141.56
101141.88
101057.85
101058.11
101058.66
101058.73
101059.86
101061.34
101063.53
101066.7
101071.26
101077.54
101085.1
101092.25
101098.05
101102.55
101106.01
101108.52
101110.25
101111.22
101111.91
101112.34
101029.4
101029.5
101029.98
101030.1
101031.07
101032.53
101034.79
101038.11
101042.69
101048.8
101055.79
101062.36
101067.83
101072.25
101075.52
101077.86
101079.4
101080.3
101080.83
101080.83
102167.45
102165.81
102166.89
102165.33
102167.05
102166.07
102166.04
102164.72
102163.08
102162.12
102162.52
102159.41
102158.21
102157.28
102159.52
102158.53
102158.6
102159.48
102159.83
102156.92
102209.21
102208.31
102208.77
102206.75
102207.76
102206.5
102204.18
102201.6
102203.91
102188.52
102198.13
102179.3
102190.3
102179.85
102184.23
102181.05
102183.9
102181.74
102183.91
102181.3
102237.91
102238.49
102237.01
102236.75
102236.18
102235.28
102234.79
102217.82
102243.95
102204.21
102234.25
102191.22
102221.68
102194.27
102213.95
102197.87
102208.15
102199.94
102204.48
102201.71
102258.36
102258.4
102258.26
102257.95
102257.23
102256.64
102257.62
102230.69
102271.07
102217.05
102258.15
102200.87
102236.66
102206.86
102226.7
102211.25
102220.94
102213.57
102217.53
102215.33
102271.77
102271.71
102271.43
102271.05
102270.65
102269.97
102271.76
102233.58
102283.74
102223.77
102272.07
102206.73
102244.39
102215.36
102232.63
102217.49
102225.87
102220.06
102222.7
102221.63
102275.51
102275.62
102275.26
102274.63
102273.66
102270.22
102283.53
102236.38
102289.81
102223.31
102277.42
102206.92
102245.03
102217.04
102236.88
102212.4
102221.75
102218.55
102220.09
102219.07
102271.94
102271.85
102271.43
102270.66
102269.09
102265.35
102282.13
102231.98
102287.01
102214.47
102271.84
102203.21
102237.5
102209.44
102221.7
102212.72
102216.43
102208.58
102209.73
102207.54
102262.66
102262.48
102260.05
102259.1
102257.1
102252.07
102271.31
102220.63
102275.32
102201.31
102260.6
102195.95
102222.76
102192.99
102198.86
102194.09
102196.39
102192.73
102192.4
102192.46
102241.08
102240.94
102240.38
102239.3
102237.5
102230.7
102253.46
102199.96
102258.78
102176.38
102245.65
102170.67
102203.87
102173.65
102189.91
102181.14
102184.55
102183.59
102184.46
102182.7
102210.89
102210.81
102210.29
102209.2
102207.31
102201.51
102218.12
102170.64
102229.25
102151.77
102218.24
102148.62
102177.17
102146.75
102157.62
102149.71
102152.19
102151.38
102150.98
102150.43
102171.4
102171.29
102170.73
102169.57
102167.46
102162.3
102177.16
102128.03
102184.01
102119.88
102181.98
102107.89
102138.73
102107.54
102120.42
102108.98
102113.23
102109.71
102110.88
102110.05
102125.53
102125.53
102125.4
102125.04
102124.17
102122.25
102121.13
102105.86
102129.73
102065.15
102131.26
102057.53
102087.2
102061.38
102075
102062.68
102066.61
102063.79
102064.38
102063.93
102070.61
102070.61
102070.37
102069.97
102069.32
102067.63
102073.45
102052.46
102077.74
102021.44
102066.85
102002.98
102032.55
102009.8
102020.19
102012.29
102015.29
102012.79
102013.45
102013.02
102009.17
102009.2
102009.07
102008.88
102008.51
102007.69
102008.85
101999.1
102004.49
101987.43
101993.36
101944.53
101976.24
101952.79
101964.82
101957.25
101960.39
101957.81
101958.37
101958.04
101940.89
101940.83
101940.78
101940.65
101940.33
101939.49
101940.9
101934.31
101928.59
101916.24
101940.46
101891.68
101912.48
101897.8
101904.02
101898.86
101900.88
101898.88
101900.12
101899.76
101865.75
101865.77
101865.5
101865.09
101864.41
101862.44
101861.13
101864
101860.22
101856.94
101868.03
101850.79
101827.77
101830.12
101840.87
101836.69
101839.38
101837.84
101838.21
101839
101789.29
101789.4
101789.23
101789.07
101789.01
101788.16
101788.5
101787.49
101786.72
101785.49
101784.84
101780.33
101779.55
101778.1
101774.92
101775.81
101773.32
101774.08
101776.18
101775.28
101713.53
101713.6
101713.33
101713.16
101713.3
101713.48
101713.56
101712.51
101715.01
101711.72
101713.17
101714.06
101713.28
101712.93
101710.99
101709.78
101710.4
101708.22
101710.59
101710.18
101637.87
101637.85
101637.81
101637.74
101637.75
101637.82
101638.04
101638.09
101640.97
101638.48
101643.31
101638.09
101646.57
101642.57
101644.74
101642.98
101644.03
101643.82
101644.15
101644.25
101563.48
101563.47
101563.67
101563.3
101564.47
101563.82
101564.99
101564.19
101566.43
101565.56
101573
101569.93
101577.84
101577.36
101576.5
101578.03
101576.95
101579.76
101577.02
101577.12
101491.09
101490.97
101491.46
101490.96
101491.86
101492.08
101493.28
101493.31
101494.49
101496.07
101501
101502.85
101507.58
101509
101508.77
101509.48
101510.13
101509.52
101513.46
101513.9
101420.68
101420.79
101420.63
101420.6
101421.26
101421.54
101422.41
101423.75
101426.23
101428.4
101432.53
101436.59
101442.17
101443.56
101442.48
101444.77
101445.35
101444.95
101446.81
101446.16
101352.13
101352.18
101352.46
101352.29
101353.13
101353.64
101354.8
101356.6
101359.11
101362.54
101367.4
101371.76
101375.53
101378.06
101380.06
101381.2
101382.47
101382.87
101383.4
101385.68
101288.06
101288.14
101288.5
101288.41
101289.33
101290.13
101291.5
101293.57
101296.64
101301.03
101306.26
101311.29
101315.54
101318.49
101320.85
101322.85
101323.29
101324
101323.96
101325.58
101228.85
101228.94
101229.3
101229.28
101230.22
101231.19
101232.82
101235.29
101238.83
101243.93
101249.93
101256.1
101260.49
101263.96
101266.15
101270.17
101268.47
101271.77
101270.48
101271.66
101174.99
101175.15
101175.56
101175.43
101176.48
101177.7
101179.63
101182.46
101186.48
101191.99
101198.67
101205.08
101210.28
101214.29
101217.46
101219.57
101221.33
101222.18
101222.66
101222.44
101128.56
101128.81
101129.33
101129.04
101130.21
101131.57
101133.66
101136.74
101141.11
101147.1
101154.21
101160.99
101166.54
101170.86
101174.15
101176.42
101178.01
101178.97
101179.6
101179.7
101089.55
101089.68
101090.17
101090.22
101091.23
101092.64
101094.81
101098.03
101102.63
101108.88
101116.22
101123.25
101129.01
101133.46
101136.84
101139.24
101140.9
101141.91
101142.55
101142.87
101058.36
101058.64
101059.17
101059.33
101060.47
101061.95
101064.16
101067.42
101072.03
101078.37
101085.91
101093.04
101098.84
101103.38
101106.9
101109.43
101111.19
101112.22
101112.88
101113.36
101030.68
101030.81
101031.38
101031.13
101032.17
101033.64
101035.88
101039.08
101043.57
101049.65
101056.76
101063.36
101068.77
101073.27
101076.74
101079.32
101081.05
101082.12
101082.71
101082.8
102167.37
102166.48
102167.84
102166.12
102167.92
102167.01
102167.48
102167.28
102167.47
102164.07
102164.46
102161.24
102165.66
102161.03
102161.56
102160.54
102160.41
102160.41
102159.69
102158.76
102209.36
102208.66
102209.06
102207.79
102208.26
102206.64
102206.22
102200.82
102205.15
102190.7
102196.71
102181.92
102191.74
102182.69
102189.62
102186.34
102186.49
102185.09
102184.8
102180.32
102238.56
102239.12
102237.7
102237.1
102237.15
102235.86
102235.46
102221.02
102247.36
102204.72
102236.27
102193.32
102221.38
102196.96
102215.5
102200.77
102209.36
102201.92
102206.04
102203.16
102259.26
102259.34
102258.87
102258.38
102257.71
102256.29
102254.8
102232.71
102275.11
102215.59
102258.32
102203.81
102237.31
102210.85
102227.24
102214.21
102221.34
102215.71
102219.49
102216.82
102272.26
102272.43
102271.9
102271.61
102270.88
102270.03
102270.89
102236.09
102287.97
102221.3
102273.84
102206.97
102244.61
102216.79
102233.28
102220.39
102228.42
102221.4
102225.15
102222.9
102276.61
102277.11
102276.34
102275.96
102275.06
102273.68
102277.47
102237.09
102292.42
102220.17
102278.83
102207.1
102245.79
102217.12
102232.18
102219.75
102225.48
102220.17
102222.97
102221.29
102274.28
102274.36
102273.81
102273.39
102272.17
102270.89
102272.75
102235.26
102288.17
102213.79
102273.31
102202.41
102237.8
102207.19
102222.91
102211.64
102213.79
102211.52
102213.24
102210.85
102263.44
102262.75
102262.79
102262.09
102260.92
102258.88
102269.01
102223.62
102278.12
102201.99
102261.03
102199.45
102220.14
102197.32
102210.64
102188.74
102197.22
102185.73
102200.25
102191.23
102241.29
102241.45
102240.96
102240.77
102238.47
102234.04
102251.46
102203.36
102260.34
102178.62
102244.72
102183.08
102205.49
102183.24
102198.89
102182.92
102192.21
102182.93
102185.08
102183.11
102212.04
102212.01
102211.59
102210.78
102209.32
102206.52
102206.91
102156.17
102240.51
102157.3
102211.25
102168.49
102173.78
102151.05
102156.98
102150.85
102156.84
102152.03
102152.57
102151.49
102172.38
102172.34
102171.74
102170.68
102168.66
102164.64
102157.98
102136.62
102148.26
102153.91
102184.85
102113.35
102138.63
102115.71
102117.19
102113.11
102112.78
102112.17
102111.94
102111.5
102125.2
102125.12
102124.71
102123.99
102122.87
102120.6
102118.39
102106.18
102131.25
102070.74
102129.62
102060.21
102091.83
102067.09
102074.39
102066.28
102068.78
102065.88
102066.66
102065.96
102070.61
102070.66
102070.55
102070.3
102070.03
102069.88
102073.52
102065.12
102066.66
102039.66
102046.54
102005.26
102038.22
102015.42
102023.42
102015.24
102017.99
102015.12
102015.82
102015.3
102009.61
102009.65
102009.55
102009.36
102009.15
102008.66
102009.48
101996.94
102012.92
101973.72
101999.03
101957.19
101981.65
101959.36
101967.54
101960.11
101963.2
101960.58
101961.36
101960.78
101941.48
101940.83
101941.73
101941.25
101941.52
101942.04
101946.9
101932.68
101927.69
101925.08
101932.79
101896
101917.16
101901.3
101907.78
101901.58
101904.37
101901.91
101902.93
101902.82
101865.89
101865.85
101865.72
101865.42
101864.89
101863.84
101863.41
101861.95
101857.15
101853.93
101863.3
101850.85
101850.55
101840.27
101844.96
101838.78
101840.01
101836.54
101842.72
101849.34
101790.52
101790.61
101790.4
101790.21
101790.11
101789.42
101789.24
101787.96
101787.46
101785.75
101783.97
101773.08
101788.84
101789.21
101775.17
101776.64
101776.14
101777.28
101776.65
101778.83
101714.29
101714.79
101714.62
101714.25
101714.7
101713.91
101715.13
101712.75
101715.16
101714.54
101714.89
101714.14
101714.9
101712.36
101714.12
101710.08
101712.02
101710.86
101711.56
101711.22
101638.49
101638.34
101638.79
101638.21
101639.02
101638.86
101639.57
101638.59
101639.48
101640.68
101644.73
101643
101643.21
101644.79
101644
101644.67
101643.71
101644.63
101644.11
101644.23
101564.95
101564.93
101565.4
101564.42
101565.07
101565.34
101566.22
101564.04
101567.03
101561.48
101578.57
101574.15
101576.01
101577.28
101577.07
101577.59
101575.82
101577.31
101579.81
101582.54
101492.65
101492.99
101492.78
101492.85
101493.43
101493.4
101493.89
101495.02
101497.59
101498.13
101504.79
101504
101506.73
101508.47
101511.15
101512.36
101510.79
101507.7
101513.88
101513.26
101421.81
101421.87
101422.14
101421.93
101422.88
101422.88
101423.91
101425.36
101427.53
101430.37
101435.69
101438.22
101441.09
101442.93
101444.49
101446.23
101445.79
101446.97
101446.85
101447.14
101354.03
101354.1
101354.48
101353.81
101354.82
101355.42
101356.58
101358.19
101360.63
101364.14
101369.39
101373.38
101377.01
101379.7
101381.76
101383.32
101384.32
101384.9
101386.42
101380.94
101289.79
101289.92
101290.24
101290.14
101291.03
101291.84
101293.22
101295.29
101298.33
101302.45
101307.92
101312.68
101317.37
101320.89
101323.96
101326.61
101324.91
101326.84
101325.19
101326.37
101230.43
101230.53
101230.96
101230.81
101231.84
101232.83
101234.48
101236.91
101240.42
101245.26
101251.36
101257.08
101262.07
101265.71
101268.65
101270.69
101271.51
101273
101272.97
101273.92
101176.81
101176.94
101177.46
101177.1
101178.22
101179.48
101181.4
101184.21
101188.2
101193.7
101200.37
101206.74
101212.01
101216.08
101219.15
101221.26
101222.77
101223.72
101224.33
101224.71
101130.32
101130.49
101130.91
101131.1
101132.07
101133.4
101135.48
101138.53
101142.86
101148.81
101155.93
101162.71
101168.25
101172.57
101175.79
101178.05
101179.67
101180.52
101181.23
101181.58
101091.38
101091.52
101091.98
101092.09
101093.07
101094.47
101096.63
101099.83
101104.34
101110.42
101117.86
101124.92
101130.63
101135.15
101138.54
101140.95
101142.62
101143.51
101144.24
101144.72
101059.67
101059.91
101060.4
101060.83
101061.86
101063.32
101065.58
101068.88
101073.57
101080
101087.56
101094.65
101100.45
101105.11
101108.67
101111.27
101113.05
101114.1
101114.79
101115.15
101032.52
101032.67
101033.24
101033.15
101034.23
101035.72
101037.92
101041.08
101045.57
101051.68
101058.81
101065.67
101071.05
101075.29
101078.51
101080.83
101082.44
101083.38
101083.94
101083.97
102167.47
102166.67
102170.07
102169.53
102169.36
102168.88
102169.17
102169.42
102167.83
102167.7
102167.78
102163.15
102166.13
102162.94
102164.82
102162.73
102162.58
102163.85
102163.69
102162.71
102211.44
102210.75
102210.98
102209.75
102210.28
102209.43
102208.56
102202.21
102211.22
102192.08
102204.54
102183.26
102196.63
102184.86
102189.29
102185.51
102187.46
102186.68
102189.13
102185.81
102240.05
102243.07
102238.85
102239.3
102238.05
102237.44
102235.23
102230.5
102246.75
102204.49
102239.65
102193.59
102226.37
102199.2
102216.09
102203.17
102210.61
102205.99
102208.79
102206.89
102260.6
102261.17
102260.66
102259.99
102258.55
102256.35
102252.16
102233.29
102284.18
102216.12
102263.87
102201.06
102246.05
102208.14
102230.52
102216.94
102223.04
102221.58
102222.03
102220.75
102274.15
102274.15
102273.92
102273.46
102272.7
102271.57
102270.78
102239.36
102298.4
102220.36
102279.43
102205.54
102251.31
102219.05
102235.21
102226.25
102229.46
102226.03
102227.87
102226.58
102279.39
102279.94
102279.26
102279.36
102278.63
102277.91
102278.66
102239.67
102298.86
102219.21
102283.44
102206.47
102251.58
102220.26
102234.13
102225.78
102228.37
102225.47
102226.64
102225.52
102276.41
102276.51
102275.93
102275.29
102274.1
102272.08
102269.01
102251.44
102287.92
102212.91
102273.67
102205.12
102240.69
102211.95
102223.2
102215.29
102217.88
102215.72
102215.63
102214.25
102264.42
102265.04
102264.93
102264.87
102264.19
102262.52
102262.48
102252
102275
102197.05
102266.82
102195.67
102233.55
102197.92
102213.53
102191.1
102201.56
102197.27
102204.82
102202.86
102244.06
102244.21
102243.87
102243.39
102242
102239.87
102240.65
102228.67
102252
102173.67
102249.33
102176.14
102211.4
102180.04
102201.93
102188.3
102196.18
102185.81
102186.9
102185.16
102213.93
102214.05
102213.42
102212.81
102211.65
102209.62
102215.41
102169.28
102236.57
102152.85
102222.51
102151.16
102183.72
102151.05
102164.43
102153.43
102157.53
102153.85
102154.47
102153.63
102174.61
102174.57
102174.04
102173.12
102171.48
102168.85
102166.65
102116.53
102202.69
102120.92
102172.89
102118.32
102157.04
102117.46
102126.26
102115.3
102118.47
102114.91
102115.94
102114.95
102127.08
102127.22
102126.45
102125.96
102124.42
102121.9
102117.81
102106.53
102136.84
102066.46
102138.18
102073.25
102097.95
102072.34
102079.22
102070.46
102072.9
102069.74
102070.41
102069.8
102071.87
102071.98
102071.65
102071.15
102070.37
102069
102067.93
102056.92
102075.53
102026.25
102068.72
102020.39
102044.79
102021.4
102026.91
102020.21
102021.64
102019.16
102019.87
102019.07
102010.02
102010.02
102009.82
102009.54
102009.21
102008.79
102009.83
101998.67
102016.92
101979.69
101953.26
102001.81
101992.3
101968.44
101969.61
101966.18
101965.95
101964.67
101964.22
101963.76
101942.42
101942.46
101942.34
101942.12
101941.83
101941.23
101940.92
101931.05
101936.8
101924.85
101928.91
101905.7
101922.79
101901.33
101905.4
101908.26
101909.72
101907.87
101902.97
101903
101868.57
101868.55
101868.36
101868.06
101867.68
101866.84
101867.47
101862.07
101845.49
101869.57
101868.59
101826.52
101858.5
101843.03
101849.3
101844.52
101846.86
101844.32
101844.63
101844.19
101792.97
101793.01
101792.91
101792.69
101793.56
101792.82
101792.7
101791.16
101788.73
101789.29
101788.85
101779.71
101784.83
101780.57
101785.22
101779.13
101782.74
101778.82
101780.41
101779.9
101717.76
101717.36
101718.09
101717.07
101717.8
101717.36
101718.14
101715.77
101717.7
101716.79
101718.7
101715.02
101715.9
101716
101716.21
101713.09
101713.83
101714.1
101714.02
101713.61
101642.83
101641.82
101642.02
101641.57
101642.07
101642.14
101642.79
101641.77
101644.62
101642.28
101648.21
101644.78
101646.59
101648.31
101645.02
101650.34
101643.09
101649.16
101645.59
101647.65
101567.63
101567.59
101567.7
101567.34
101568.55
101568.31
101569.25
101568.19
101571.47
101567.98
101580
101575.09
101580.12
101578.17
101579.65
101579.86
101580.01
101580.46
101580.82
101578.24
101495.64
101495.64
101495.78
101495.62
101496.37
101496.41
101497.34
101498.26
101498.86
101501.09
101507.62
101508.22
101511.27
101512.72
101512.53
101514.43
101512.59
101514.55
101512.86
101514.47
101425.16
101425.21
101425.46
101425.39
101426.11
101426.45
101427.4
101428.67
101430.72
101433.44
101437.98
101443.12
101440.86
101446.39
101446.38
101448.75
101447.04
101450.3
101448.28
101449.88
101357.13
101357.2
101357.54
101357.17
101358.02
101358.6
101359.81
101361.63
101364.15
101367.53
101372.67
101377.12
101377.91
101383.29
101383.5
101386.26
101385.97
101387.32
101387.15
101387.29
101293.01
101293.12
101293.52
101293.11
101294.1
101294.92
101296.36
101298.45
101301.44
101305.67
101310.99
101315.93
101319.94
101323.37
101325.69
101327.55
101328.44
101329.17
101329.53
101329.98
101233.57
101233.65
101234.04
101234.18
101235.04
101236.07
101237.68
101240.09
101243.6
101248.5
101254.51
101260.23
101265.06
101268.66
101271.47
101273.39
101274.66
101275.71
101276.07
101276.69
101180.16
101180.34
101180.85
101180.29
101181.58
101182.79
101184.69
101187.46
101191.43
101196.92
101203.57
101209.94
101215.2
101219.26
101222.35
101224.53
101226.05
101226.96
101227.56
101227.94
101133.7
101133.95
101134.46
101134.19
101135.35
101136.72
101138.78
101141.81
101146.11
101152
101159.15
101165.91
101171.46
101175.81
101179.09
101181.37
101183.02
101183.89
101184.5
101184.92
101094.65
101094.85
101095.4
101095.31
101096.39
101097.83
101100
101103.15
101107.6
101113.8
101121.19
101128.18
101133.93
101138.45
101141.89
101144.31
101145.98
101146.99
101147.62
101147.93
101062.51
101062.72
101063.2
101063.59
101064.59
101066.11
101068.45
101071.82
101076.64
101083.11
101090.67
101097.74
101103.64
101108.22
101111.74
101114.28
101115.99
101116.96
101117.72
101117.95
101035.82
101036.02
101036.35
101036.83
101037.75
101039.22
101041.39
101044.59
101049.06
101055.02
101062.36
101069.41
101075.25
101080.02
101083.63
101086.19
101087.93
101088.95
101089.6
101089.46
102173.07
102171.63
102170.15
102171.45
102173.93
102173.2
102172.81
102172.11
102170.99
102170.17
102172.18
102168.02
102170.36
102168.02
102169.29
102168.28
102167.66
102168.18
102167.73
102166.79
102216.13
102215.52
102215.25
102213.85
102214.58
102212.82
102211.73
102207.96
102202.57
102200.61
102211.7
102188.2
102202.29
102190.88
102194.73
102192.73
102193.47
102190.58
102191.73
102190.69
102243.56
102245.47
102244.55
102244.02
102243.84
102242.53
102242.23
102230.61
102252.24
102207.6
102245.97
102199.83
102232.47
102206.52
102218.41
102210.88
102214.07
102211.74
102212.78
102211.95
102265.53
102265.61
102265.13
102264.31
102263.01
102260.5
102256.09
102241.98
102289.08
102217.04
102271.82
102205.4
102250.58
102218.52
102233.94
102223.57
102227.79
102224.09
102225.99
102224.52
102277.96
102277.9
102277.56
102276.88
102275.74
102274.38
102273.96
102242.71
102303.92
102219.6
102286.78
102209.31
102259.45
102223.53
102242.03
102229.12
102235.61
102230.37
102233.43
102231.65
102283.35
102283.56
102283.09
102282.63
102281.76
102280.68
102280.66
102244.95
102305.36
102217.41
102289.76
102211.36
102258.55
102223.07
102242.22
102227.6
102234.23
102230.24
102236.26
102234.78
102282.92
102281.29
102280.72
102279.81
102278.58
102276.68
102276.89
102240.81
102298.39
102210.82
102281.22
102210.71
102242.53
102217.22
102232.51
102222.8
102227.11
102224.25
102225.43
102225.18
102264.92
102267.05
102266.95
102267.28
102265.99
102264.14
102261.52
102251.89
102290.85
102201.37
102274.43
102206.44
102230.59
102204.21
102220.68
102205.3
102216.15
102210.95
102212.42
102210.72
102245.15
102245.25
102244.91
102244.43
102243.35
102241.38
102237.5
102216.02
102267.82
102179.81
102254.36
102190.27
102216.45
102191.68
102192.21
102187.83
102186.97
102183.5
102183.9
102183.88
102216.48
102216.78
102216.18
102215.98
102215.18
102213.3
102216.88
102174.28
102238.01
102152.37
102230.36
102151.8
102189.61
102153.81
102168.06
102155.61
102160.33
102155.86
102157.2
102155.93
102181.05
102176.64
102176.64
102176.29
102175.14
102172.3
102178.78
102136.28
102200.44
102113.89
102191.54
102115.54
102151.38
102122.27
102130.6
102120.58
102122.49
102119.44
102119.71
102118.96
102130.19
102130.15
102129.69
102128.98
102127.8
102126.08
102126.6
102086.71
102153.94
102067.91
102147.66
102067.69
102106.98
102075.82
102086.45
102075.69
102078.61
102075.07
102075.7
102074.88
102074.86
102074.8
102074.44
102073.73
102072.4
102069.85
102074.01
102042.05
102092.55
102019.64
102089.44
102017.59
102049.88
102025.65
102035.01
102024.74
102028.01
102024.59
102025.43
102024.72
102015.76
102013.1
102013.06
102012.79
102012.25
102011.14
102009.52
101977.33
102007.76
102008.03
102006.54
101957.91
101988.61
101971.46
101981.28
101969.07
101974.2
101970.01
101970.86
101970.21
101946.21
101946.1
101945.91
101945.62
101945.31
101944.78
101944.81
101934.55
101948.93
101933.56
101928.79
101892.35
101925.76
101917.81
101920.39
101915.69
101916.51
101910.31
101913.04
101911.76
101874.62
101871.87
101872.16
101872.13
101871.85
101871.12
101871.78
101864.21
101868.69
101857.35
101854.82
101857.62
101865.14
101850.6
101855.87
101851.6
101853.2
101850.36
101851.04
101850.07
101798.52
101797.85
101799.69
101797.91
101799.01
101799.42
101803.52
101796.39
101791.64
101783.65
101793.89
101786.83
101779.05
101800.37
101788.84
101791.66
101787.99
101788.08
101787.21
101787.59
101723.99
101722.6
101723.32
101723.02
101723.04
101722.67
101722.86
101722.81
101721.42
101720.31
101721.06
101722.51
101720.36
101725.18
101719.66
101719.86
101719.99
101721.04
101720.18
101720.74
101648.02
101647.99
101647.94
101647.7
101647.92
101647.91
101648.35
101647.7
101649.25
101647.54
101652.66
101647.4
101656.05
101651.71
101652.47
101653.14
101652.04
101651.79
101652.52
101652.04
101573.76
101573.67
101574.07
101573.37
101574.33
101573.92
101574.59
101574.61
101576.55
101575.61
101583.36
101582.55
101585.79
101583.78
101584.61
101585.08
101585.27
101584.31
101585.04
101584.26
101501.37
101501.37
101501.47
101501.49
101501.85
101502.1
101502.66
101503.54
101505.06
101506.42
101510.44
101508
101521.92
101519.49
101518.26
101519.76
101517.94
101518.96
101517.66
101518.91
101430.52
101430.56
101430.79
101430.68
101431.52
101431.84
101432.67
101433.95
101435.86
101438.25
101442.8
101445.13
101449.36
101451.99
101454.04
101459.04
101447.71
101451.81
101451.8
101454.07
101362.54
101362.63
101362.94
101362.68
101363.74
101364.08
101365.24
101366.9
101369.27
101372.75
101377.5
101381.44
101384.21
101388.28
101389.13
101392.2
101390.75
101392.62
101391.36
101392.67
101298.29
101298.88
101299.15
101299.04
101299.96
101300.74
101302.13
101304.21
101307.16
101311.23
101316.37
101321.2
101325.49
101328.76
101330.82
101332.84
101333.75
101334.47
101335.16
101334.17
101239.34
101239.45
101239.86
101239.96
101240.88
101241.9
101243.56
101246
101249.48
101254.28
101260.17
101265.83
101270.62
101274.16
101276.96
101278.93
101280.21
101280.96
101281.35
101281.88
101185.88
101186.03
101186.46
101186.56
101187.54
101188.74
101190.65
101193.46
101197.41
101202.84
101209.41
101215.76
101220.99
101224.99
101228.04
101230.2
101231.64
101232.66
101233.14
101233.43
101139.59
101139.76
101140.21
101140.41
101141.41
101142.77
101144.85
101147.9
101152.17
101158.02
101165.14
101171.93
101177.44
101181.73
101184.98
101187.26
101188.84
101189.65
101190.44
101190.55
101100.33
101100.97
101101.13
101101.5
101102.53
101103.92
101106.07