/*--------------------------------*- C++ -*----------------------------------*\
| =========                 |                                                 |
| \\      /  F ield         | OpenFOAM: The Open Source CFD Toolbox           |
|  \\    /   O peration     | Version:  1.7.x                                 |
|   \\  /    A nd           | Web:      www.OpenFOAM.com                      |
|    \\/     M anipulation  |                                                 |
\*---------------------------------------------------------------------------*/
FoamFile
{
    version     2.0;
    format      ascii;
    class       volScalarField;
    location    "0.0015";
    object      rho;
}
// * * * * * * * * * * * * * * * * * * * * * * * * * * * * * * * * * * * * * //

dimensions      [1 -3 0 0 0 0 0];

internalField   nonuniform List<scalar> 
206988
(
1.1754542
1.1754434
1.1755206
1.1754926
1.1755038
1.1755099
1.1755091
1.1754856
1.1754681
1.1754716
1.1754886
1.1754617
1.1754545
1.1754485
1.1754672
1.1754516
1.1754466
1.1754045
1.1753911
1.1755817
1.1758745
1.1758644
1.1758689
1.175857
1.1758499
1.175862
1.1758143
1.1758062
1.1757802
1.1757552
1.1757322
1.1756191
1.1757253
1.1756638
1.1757192
1.1757688
1.1754828
1.1754984
1.1756584
1.1757906
1.1760559
1.1761239
1.1761028
1.1761255
1.1760979
1.1760403
1.1760837
1.1759508
1.1761567
1.1758698
1.1760299
1.1756812
1.1759582
1.1756768
1.1758493
1.1757682
1.1758484
1.1757722
1.1758582
1.1760051
1.1762827
1.1762796
1.1762876
1.1762539
1.1762591
1.1762605
1.1762543
1.1760409
1.1763792
1.1759554
1.1762638
1.1758205
1.17611
1.1758118
1.1759729
1.1758472
1.1758772
1.1756743
1.1763392
1.1764001
1.1763656
1.1763509
1.1763696
1.1763735
1.1763711
1.1763852
1.176403
1.1760526
1.1765189
1.1760042
1.1763727
1.1758583
1.1761379
1.1759556
1.1760765
1.1758932
1.1759557
1.175946
1.1760937
1.1762185
1.1763926
1.1764027
1.1763966
1.1763781
1.1763668
1.1763264
1.1764438
1.176067
1.1764957
1.1759574
1.1764174
1.1758532
1.1761734
1.1759118
1.176008
1.1758701
1.1759217
1.1758954
1.1759565
1.176166
1.1763552
1.1763486
1.1763364
1.1763603
1.1763531
1.1762708
1.1764622
1.1760208
1.1765011
1.1758858
1.1763915
1.1757518
1.176076
1.1758014
1.1759157
1.1758454
1.1758898
1.1758591
1.1758706
1.1760084
1.1762892
1.1762965
1.1762813
1.1762505
1.1761722
1.1760679
1.1762696
1.1758663
1.1763964
1.1757786
1.1763003
1.1756967
1.1759869
1.175625
1.1758047
1.1757833
1.1758629
1.1758745
1.1755874
1.1757543
1.1761384
1.176135
1.17612
1.1761182
1.1760914
1.1760062
1.1762095
1.1757569
1.1762496
1.1755712
1.1761817
1.1755889
1.1759173
1.1755653
1.1756987
1.1756011
1.1756695
1.1757598
1.1753724
1.1755725
1.1758804
1.1758755
1.1758721
1.175852
1.1758379
1.1758041
1.1759295
1.1755512
1.176038
1.1754143
1.1759766
1.1753444
1.1755975
1.1753459
1.175448
1.1753741
1.1753903
1.1753737
1.1753139
1.17546
1.1755273
1.1755397
1.175525
1.1755293
1.1755143
1.1754928
1.1756851
1.1751691
1.1757282
1.1751046
1.1755761
1.1750177
1.1752637
1.1749941
1.1751511
1.1750866
1.1750883
1.1750558
1.1750434
1.1752093
1.1751677
1.1751638
1.175176
1.1751899
1.1752126
1.1752355
1.1753049
1.175179
1.1750138
1.1746232
1.1751993
1.1746304
1.1748167
1.1747015
1.1747128
1.1746373
1.1746165
1.1745958
1.1747709
1.174935
1.1747198
1.1747216
1.1747249
1.1747021
1.174692
1.174677
1.1747038
1.174667
1.1747187
1.1742721
1.1747353
1.1741656
1.1743978
1.1742156
1.1743138
1.1742501
1.1742755
1.1742825
1.1742019
1.1744097
1.1742506
1.1742415
1.1742241
1.1742295
1.1742299
1.1742107
1.1742763
1.173997
1.1742827
1.1743026
1.1737725
1.1735467
1.1738581
1.1737046
1.1738072
1.1737726
1.1737775
1.1737737
1.1737567
1.1739344
1.1736569
1.1736585
1.1736844
1.1736852
1.1736604
1.173673
1.173681
1.1739494
1.1733556
1.1737005
1.1732399
1.1731462
1.1733493
1.1732455
1.1733366
1.1733531
1.1732108
1.1733414
1.17309
1.1734083
1.1730489
1.1730513
1.1730373
1.1730381
1.1730521
1.1730652
1.1731312
1.1732818
1.1727683
1.1726613
1.1732476
1.1727558
1.1728319
1.172725
1.1727554
1.1727603
1.1727845
1.1727601
1.172813
1.1729697
1.1724358
1.1724022
1.1724238
1.1724177
1.1724579
1.1724483
1.1724653
1.17254
1.1725864
1.1731463
1.1716591
1.1723977
1.1718692
1.1722999
1.1720764
1.1722491
1.1721185
1.1720829
1.1723292
1.1724904
1.1717658
1.1717885
1.1717828
1.171791
1.1717939
1.1718059
1.1718066
1.1718709
1.1720864
1.1728091
1.170854
1.1719535
1.1710505
1.1716542
1.1715053
1.1716081
1.1715703
1.1717093
1.1716929
1.1719053
1.1711983
1.1711527
1.1711802
1.1711705
1.1711899
1.1711943
1.1712247
1.171266
1.1714357
1.1722271
1.1702695
1.1715351
1.1704719
1.1711448
1.1708613
1.1710476
1.1711056
1.1711533
1.1711461
1.1713456
1.1704779
1.170562
1.1705576
1.17055
1.1705638
1.170549
1.1705852
1.1705927
1.1706059
1.1706342
1.1707929
1.1713256
1.169839
1.1703878
1.1704995
1.1705924
1.1705331
1.1706052
1.1705134
1.1706938
1.1699657
1.1699545
1.1699547
1.169957
1.1699504
1.16996
1.1699727
1.1699891
1.1699842
1.1699603
1.1700909
1.170065
1.1700883
1.170326
1.1697749
1.170001
1.1699654
1.1700252
1.1700705
1.1702178
1.1694362
1.1693581
1.1693703
1.1693664
1.1693809
1.1693847
1.1693645
1.1693702
1.1693963
1.1694304
1.1694801
1.1695366
1.1695638
1.169718
1.1693514
1.1694733
1.1694271
1.1693876
1.1695214
1.1697581
1.1687884
1.1688063
1.1688079
1.1688172
1.1688237
1.1688265
1.1688281
1.1688454
1.1688686
1.1688799
1.1689246
1.1689619
1.1690154
1.1691283
1.1689293
1.1689998
1.1689817
1.1690012
1.1690146
1.1692083
1.1682899
1.1682832
1.1682783
1.1682856
1.1682884
1.1682935
1.1683149
1.1683285
1.168353
1.1683843
1.1684334
1.168472
1.1685289
1.1685176
1.168512
1.1684939
1.1685983
1.1685742
1.1685786
1.1687556
1.1678037
1.1678029
1.1677997
1.1677797
1.1678027
1.1678094
1.1678209
1.167845
1.1678689
1.1679097
1.1679961
1.1680212
1.1680426
1.1680957
1.1681251
1.168172
1.1680758
1.1681354
1.1681057
1.1683161
1.1673418
1.1673446
1.1673461
1.1673515
1.1673578
1.1673743
1.1673939
1.1674091
1.1674488
1.1675
1.1675363
1.1675928
1.1676418
1.1676788
1.1676896
1.1677486
1.1677466
1.1677298
1.1677083
1.1679125
1.1669571
1.166958
1.16698
1.166972
1.1669794
1.1669887
1.1670014
1.1670349
1.1670764
1.1671166
1.1671755
1.1672233
1.1672714
1.1673172
1.1673534
1.1673589
1.1673662
1.1673708
1.1673941
1.1675572
1.166641
1.1666442
1.1666385
1.1666423
1.1666524
1.1666631
1.1666798
1.166708
1.1667405
1.1667977
1.1668693
1.1669145
1.1669605
1.1669932
1.1670255
1.167037
1.1670608
1.1670592
1.1670545
1.1672619
1.1663855
1.1663877
1.1663905
1.1663929
1.1664015
1.1664134
1.1664323
1.1664592
1.1664954
1.1665517
1.1666125
1.1666736
1.1667244
1.1667607
1.1667912
1.1668017
1.1668064
1.1668358
1.1668365
1.1670227
1.1661528
1.1661545
1.1661586
1.1661595
1.1661642
1.1661757
1.1661946
1.1662223
1.1662641
1.1663064
1.1663592
1.1664237
1.1664671
1.1665025
1.1665332
1.1665611
1.166575
1.1665766
1.1665878
1.1667666
1.1755818
1.1756054
1.1754368
1.1754823
1.1755019
1.1755141
1.175509
1.1754925
1.1754856
1.175495
1.1754847
1.1754495
1.1754712
1.175464
1.1754468
1.175431
1.1754294
1.1754371
1.1754404
1.1755975
1.1758629
1.175882
1.1758659
1.1758415
1.1758454
1.1758488
1.175786
1.1758027
1.1758217
1.175661
1.1757488
1.1755687
1.175706
1.1756471
1.1756938
1.1756601
1.1756496
1.1757031
1.1756635
1.1758102
1.1761249
1.1761097
1.1761077
1.1761148
1.1761108
1.1760628
1.1760762
1.1759492
1.1761544
1.1758243
1.1761165
1.175718
1.1759576
1.1757396
1.1759144
1.1757407
1.1758519
1.1757944
1.1759125
1.1760158
1.176265
1.1762762
1.1762678
1.1762421
1.1762693
1.1762498
1.1762896
1.1760565
1.1763847
1.175904
1.1762736
1.1758068
1.1761029
1.1758078
1.1759609
1.1758365
1.1760182
1.1759903
1.1759342
1.1760706
1.1763995
1.1763662
1.1763612
1.176362
1.1763379
1.1763534
1.1763487
1.1760642
1.1764561
1.175966
1.1763937
1.1758298
1.1761837
1.1759066
1.1760912
1.1759562
1.1760227
1.1758879
1.1760665
1.1762327
1.1764189
1.1764237
1.1764005
1.1763997
1.1764113
1.1763831
1.1764701
1.1760673
1.1765094
1.1759996
1.1764522
1.1758925
1.1761876
1.175989
1.1760906
1.1759039
1.1759626
1.175921
1.1760067
1.1761759
1.1763406
1.1763537
1.1763662
1.1763882
1.176327
1.1763235
1.1764773
1.1760796
1.1765374
1.1759365
1.1763497
1.1757837
1.1760553
1.1758613
1.1759686
1.1758984
1.1758818
1.1757848
1.1759958
1.1761175
1.1763037
1.176307
1.1762955
1.1762576
1.1763208
1.1763356
1.1764751
1.1760355
1.1764186
1.1757651
1.1762785
1.1757433
1.1759744
1.1757868
1.1758093
1.1757224
1.1756983
1.1756112
1.1758809
1.176026
1.1761348
1.1761297
1.1761257
1.1761498
1.1761093
1.1760759
1.1762737
1.1757734
1.1762462
1.1755907
1.1761708
1.1755811
1.1758157
1.175618
1.1757402
1.1756478
1.1756649
1.1756479
1.175788
1.1758573
1.1759136
1.175886
1.1758895
1.1758613
1.1758282
1.1757646
1.1759153
1.1755655
1.1760703
1.1754229
1.1759636
1.1753928
1.1756372
1.1753582
1.1754521
1.1754082
1.1754592
1.1754599
1.1753962
1.1755457
1.1755347
1.1755602
1.1755495
1.175524
1.1755371
1.1755161
1.1756301
1.1752258
1.1756616
1.1751477
1.1756366
1.1750574
1.1753101
1.1750134
1.1751513
1.1750717
1.1751079
1.1750472
1.1749982
1.1751721
1.1751945
1.1751966
1.1752035
1.1752059
1.1751853
1.1751482
1.1751605
1.1750319
1.17517
1.1746371
1.175213
1.1745953
1.1748861
1.1747066
1.1747982
1.1746792
1.1747277
1.1746541
1.1747392
1.1748456
1.1747179
1.1747132
1.1747131
1.1747014
1.174704
1.1746832
1.1747193
1.1744575
1.1748981
1.1743438
1.1747041
1.1741711
1.1743872
1.1741867
1.1742695
1.1742046
1.1742547
1.1742483
1.1742294
1.1744193
1.1742298
1.1742349
1.1742378
1.1742294
1.1742391
1.1742538
1.1743174
1.1744418
1.1739448
1.1741677
1.1739132
1.1736809
1.1739452
1.1737555
1.1738677
1.1738018
1.1738096
1.1737648
1.1738349
1.1740172
1.1736636
1.1736835
1.173687
1.1736778
1.1736965
1.1736979
1.1737865
1.1738648
1.1733472
1.1732902
1.1737477
1.1731896
1.1733591
1.1733134
1.1733408
1.1733072
1.1733481
1.1732872
1.1733306
1.1735076
1.1730647
1.1730485
1.1730403
1.1730564
1.173045
1.1730675
1.1731074
1.1733073
1.1728857
1.1732448
1.1727118
1.1728985
1.1725571
1.1726747
1.1728196
1.1727852
1.1728156
1.172788
1.1727511
1.1729841
1.1724254
1.1724279
1.172411
1.1724266
1.1724589
1.1724411
1.172481
1.1725173
1.1726186
1.1731956
1.1715199
1.1719283
1.1724549
1.17221
1.1724151
1.1723985
1.1721889
1.1722744
1.1722534
1.1724221
1.1718137
1.1718075
1.1718081
1.1718036
1.17178
1.1718197
1.1718574
1.1718936
1.1720595
1.1725749
1.1710197
1.1717216
1.1714828
1.1717302
1.1716151
1.1716829
1.1717108
1.1716841
1.1717546
1.1719044
1.171179
1.1711794
1.1711838
1.1711853
1.1711678
1.1711918
1.1712161
1.1712622
1.171505
1.1722288
1.1700714
1.1702803
1.1717021
1.1710599
1.1714219
1.171134
1.1713189
1.1712078
1.171233
1.1713988
1.1705714
1.1705706
1.1705578
1.1705509
1.1705839
1.1705811
1.1705924
1.170582
1.170594
1.1705571
1.170792
1.1711288
1.170185
1.1708392
1.1702269
1.1706353
1.1704855
1.1706441
1.1704586
1.1706819
1.1699374
1.1699523
1.1699697
1.1699577
1.1699597
1.1699653
1.1699894
1.169986
1.1699994
1.1700017
1.1700754
1.1702528
1.1699899
1.1702479
1.1698719
1.1700471
1.169987
1.1701238
1.1700297
1.170249
1.169411
1.16938
1.1693905
1.1693833
1.16939
1.1693879
1.1693784
1.1693969
1.1694283
1.169458
1.169487
1.1695402
1.1695571
1.169521
1.1695797
1.1694963
1.1695985
1.1695606
1.1696204
1.1697737
1.16882
1.1688196
1.1688178
1.1688191
1.16883
1.1688215
1.1688356
1.1688522
1.1688763
1.168907
1.1689453
1.1689778
1.1690296
1.1691108
1.1689326
1.1689836
1.1690288
1.1690379
1.1690204
1.1692416
1.1682676
1.168292
1.1683001
1.1682979
1.1682938
1.1683219
1.1683197
1.1683353
1.1683588
1.1683811
1.1684341
1.168487
1.16851
1.1685468
1.1685671
1.1686062
1.1685365
1.1686084
1.1685283
1.1687467
1.1678017
1.1677991
1.1678006
1.1678043
1.1678071
1.1678066
1.1678386
1.1678476
1.1678804
1.1679411
1.1679869
1.1680149
1.1680649
1.1680911
1.1680982
1.1680656
1.1682055
1.1681379
1.1681804
1.1683644
1.1673587
1.167356
1.1673495
1.1673525
1.1673741
1.1673804
1.1673915
1.1674201
1.1674495
1.1674821
1.1675408
1.167614
1.1676497
1.1676806
1.1677211
1.1677691
1.1677549
1.1677359
1.1677524
1.1679352
1.1669686
1.1669733
1.1669817
1.1669776
1.1669851
1.1669967
1.1670122
1.167044
1.1670775
1.1671268
1.1671773
1.1672403
1.1672853
1.1673402
1.1673349
1.1673611
1.1673733
1.1673908
1.1673814
1.167577
1.1666501
1.1666505
1.1666487
1.1666514
1.1666631
1.1666787
1.1667063
1.1667203
1.166756
1.1668118
1.1668789
1.1669261
1.1669776
1.1669976
1.1670486
1.1670471
1.1670552
1.1670856
1.1670995
1.1672663
1.1663892
1.1663938
1.1663995
1.1664024
1.1664054
1.1664194
1.1664322
1.1664669
1.166505
1.1665534
1.1666189
1.1666736
1.1667251
1.1667621
1.1667786
1.1668049
1.1668259
1.1668243
1.1668497
1.1670328
1.1661623
1.1661605
1.1661666
1.1661598
1.1661721
1.1661839
1.166203
1.1662279
1.1662657
1.1663185
1.1663684
1.1664329
1.1664782
1.1665172
1.1665455
1.1665705
1.1665875
1.1665911
1.1665933
1.1667768
1.1754697
1.1754783
1.1755572
1.17553
1.1755301
1.1755167
1.1755313
1.1755144
1.1755196
1.175483
1.1754806
1.1754565
1.175522
1.1754766
1.1754824
1.1754584
1.1754436
1.1754268
1.1755037
1.175666
1.1758728
1.1758625
1.1758572
1.1758438
1.17584
1.1758779
1.1758223
1.1757746
1.1758365
1.1756982
1.1757638
1.1754701
1.1759317
1.175719
1.175717
1.1757259
1.1757515
1.1757369
1.1757384
1.1758491
1.1761137
1.1761267
1.1761029
1.1760985
1.1760967
1.17606
1.1760777
1.175976
1.1761442
1.1758263
1.1760715
1.1756765
1.1759616
1.1756303
1.1760687
1.175848
1.1759786
1.1759323
1.17595
1.1760575
1.176257
1.1762718
1.1762638
1.1762816
1.1762958
1.1762685
1.1762712
1.1760485
1.1764009
1.1759358
1.1762758
1.1757892
1.176093
1.1758592
1.1760666
1.1759209
1.1760038
1.175958
1.1759593
1.1761412
1.1763735
1.1763605
1.176386
1.1763459
1.1763416
1.1763723
1.1763774
1.1761172
1.1765611
1.1759409
1.176401
1.1758461
1.1761673
1.1759176
1.1760653
1.1759732
1.1760414
1.1759567
1.1760209
1.1761826
1.1764438
1.176434
1.1763998
1.1764405
1.1764188
1.1763763
1.1764294
1.176059
1.1765615
1.1759512
1.1764536
1.175899
1.1761672
1.1759303
1.1760129
1.1759197
1.1759913
1.1759402
1.1759998
1.1761598
1.1763807
1.1764053
1.1763997
1.176386
1.176379
1.1763975
1.1763742
1.1760949
1.1765231
1.1759133
1.1763667
1.1757829
1.176099
1.1758846
1.1759838
1.1758912
1.1759113
1.1759421
1.1758508
1.1760099
1.1763082
1.1762969
1.1763046
1.1762911
1.1763257
1.1762992
1.1764151
1.1760238
1.1764203
1.1757933
1.1762598
1.1757859
1.1759609
1.1757759
1.1758927
1.1757327
1.1757745
1.1757054
1.1757981
1.1758691
1.1761304
1.1761264
1.1761224
1.1761492
1.1761162
1.1760808
1.1762026
1.1757927
1.1762507
1.1756078
1.1761593
1.1756707
1.1758639
1.1756267
1.1758053
1.175645
1.1757254
1.1756786
1.1756693
1.1758102
1.1759005
1.1759004
1.1759087
1.1758643
1.175835
1.1758132
1.1758349
1.1754483
1.1761295
1.1754682
1.1758939
1.1755559
1.1756063
1.1753881
1.1754384
1.1754022
1.1754369
1.1753935
1.1754783
1.1756167
1.1755652
1.17556
1.1755516
1.1755515
1.1755716
1.175543
1.1754948
1.175352
1.1753268
1.1754074
1.1757032
1.1750906
1.1752881
1.1751372
1.1751996
1.1752055
1.1750764
1.1751013
1.1749849
1.1751864
1.1751741
1.1751816
1.1752066
1.1752045
1.1751609
1.17513
1.1751148
1.1750313
1.175224
1.1747148
1.1752138
1.1746519
1.1749079
1.1747086
1.1747667
1.1747019
1.1746628
1.1745919
1.1747972
1.1749329
1.1747286
1.1747298
1.1747077
1.1747093
1.1746995
1.1747137
1.1747612
1.1747182
1.1746547
1.1745464
1.1744547
1.1741699
1.1744511
1.1742624
1.1743128
1.1742411
1.1742829
1.1742523
1.1743091
1.1744667
1.1742363
1.1742437
1.1742447
1.1742364
1.1742656
1.1742501
1.1742788
1.1741681
1.1741859
1.1736884
1.1743902
1.1738111
1.1739636
1.173799
1.1738596
1.1738
1.1738234
1.1738057
1.1738379
1.1740283
1.173732
1.173672
1.1736822
1.173691
1.1736698
1.1737104
1.1737694
1.1737594
1.1735528
1.1738099
1.1732645
1.1732483
1.1733732
1.1733024
1.1733562
1.1733103
1.1733064
1.1732771
1.1734333
1.1735627
1.1730495
1.1730456
1.1730362
1.1730382
1.1730503
1.1730688
1.1731308
1.1732259
1.1728659
1.1729907
1.1730191
1.1733207
1.1723394
1.1726411
1.1728368
1.1728057
1.1728199
1.1727458
1.1728896
1.1730926
1.1724385
1.172435
1.1724371
1.1724585
1.1724507
1.1724637
1.1724492
1.1724917
1.1726348
1.1731939
1.1715141
1.1719848
1.1723085
1.1723045
1.1722579
1.1722327
1.1721958
1.1722188
1.1724129
1.1725971
1.1718418
1.1718027
1.1718062
1.1717837
1.1718121
1.1717908
1.1718505
1.1718941
1.172067
1.1726409
1.1709349
1.1715129
1.1717163
1.1716754
1.1717849
1.1717437
1.1717465
1.171744
1.171729
1.1719497
1.1712116
1.1711734
1.1711899
1.1711803
1.1711935
1.1711902
1.1712239
1.1712749
1.171413
1.1721669
1.1701521
1.17032
1.1718989
1.1715134
1.1710877
1.1712652
1.1711003
1.1711872
1.1710965
1.1713069
1.1705598
1.1705718
1.1705639
1.1705605
1.170559
1.1705908
1.1705765
1.1705376
1.1706303
1.1704992
1.1708151
1.1713598
1.1697835
1.1704657
1.1706347
1.1706912
1.1706003
1.1706313
1.1706334
1.1708384
1.1700012
1.1699654
1.1699712
1.1699802
1.1699895
1.1699777
1.1699811
1.1699921
1.1699971
1.1699243
1.1701054
1.1695816
1.1706034
1.1699627
1.1704868
1.1701779
1.1702202
1.1700986
1.1701999
1.1703401
1.169402
1.1693936
1.1694067
1.1694087
1.1694027
1.1693914
1.1694097
1.1694274
1.1694393
1.16946
1.1695201
1.1695037
1.1696245
1.169704
1.1694597
1.169553
1.1695038
1.1695817
1.1695437
1.1697461
1.1688236
1.1688371
1.1688301
1.1688158
1.1688395
1.1688449
1.1688598
1.1688635
1.1688861
1.168916
1.1689567
1.1690139
1.1690467
1.1690771
1.1689987
1.1690589
1.1690391
1.1690338
1.169072
1.1692146
1.1683067
1.1683034
1.1683108
1.1683074
1.1683185
1.1683263
1.1683211
1.1683644
1.1683641
1.1684078
1.1684611
1.1684818
1.1685328
1.1685524
1.1685908
1.1686283
1.1685554
1.1685913
1.1685654
1.1687524
1.1678137
1.1678125
1.1678088
1.1678158
1.16782
1.1678273
1.1678444
1.1678627
1.1679045
1.1679438
1.1679939
1.168042
1.1680871
1.1681096
1.1681475
1.1682072
1.1681047
1.1681613
1.1681154
1.16831
1.1673717
1.1673682
1.1673703
1.1673662
1.1673718
1.1673898
1.1674131
1.1674252
1.1674614
1.1674985
1.1675465
1.1675981
1.1676597
1.1677191
1.1677526
1.1677959
1.1677507
1.1677433
1.1677356
1.1679298
1.1669901
1.1669916
1.1669978
1.1669982
1.1670115
1.16701
1.1670275
1.1670522
1.1671011
1.1671418
1.1671978
1.16726
1.1672989
1.1673343
1.1673609
1.1673796
1.1673875
1.1673878
1.1674062
1.1675862
1.1666668
1.1666665
1.1666686
1.1666686
1.166677
1.1666934
1.166711
1.1667391
1.16678
1.16683
1.1668851
1.1669441
1.1669892
1.167032
1.1670403
1.1670566
1.1670722
1.1671116
1.1670967
1.1672927
1.166402
1.166403
1.1664065
1.1664138
1.1664194
1.166432
1.1664507
1.166477
1.1665147
1.1665662
1.1666387
1.1666822
1.1667371
1.166776
1.1668056
1.1668338
1.166844
1.1668526
1.1668577
1.1670425
1.1661756
1.1661775
1.1661832
1.1661811
1.1661891
1.1662025
1.1662216
1.166249
1.1662829
1.1663338
1.1663887
1.1664535
1.1664983
1.1665326
1.166561
1.1665788
1.1665973
1.1665979
1.1666054
1.166786
1.1755085
1.1755091
1.1755111
1.1755318
1.1755138
1.1755326
1.1755451
1.1755276
1.1755264
1.1755099
1.1755365
1.1754983
1.1755051
1.1755159
1.1755204
1.1754567
1.1754341
1.1753918
1.1756354
1.1757583
1.1758573
1.1758394
1.1758593
1.1758089
1.1757704
1.1760013
1.1758443
1.1757032
1.1759395
1.1756337
1.1759095
1.1755959
1.1758008
1.175671
1.1756909
1.1757064
1.1757324
1.1757161
1.1758458
1.1759543
1.1761229
1.1761447
1.1761215
1.1761114
1.1761229
1.1760701
1.1760826
1.1760519
1.1761808
1.1758104
1.1760488
1.1753004
1.1764372
1.1757582
1.1755899
1.1748576
1.1770136
1.1763988
1.1763122
1.1763845
1.1762921
1.1762814
1.1762622
1.1763003
1.1762626
1.1762494
1.1761957
1.1760679
1.1764909
1.1759018
1.1763008
1.175768
1.1762561
1.1758743
1.1759875
1.1758007
1.1761635
1.1761788
1.1761279
1.1762934
1.1763926
1.1763993
1.1763949
1.1763937
1.1763745
1.1763621
1.1763656
1.1761321
1.1765994
1.1759388
1.1764449
1.1758249
1.1762419
1.1759683
1.1760324
1.1759881
1.1760475
1.1760468
1.1760958
1.1762457
1.1764188
1.1764459
1.176474
1.1764546
1.1764258
1.176434
1.1764598
1.1760952
1.1766149
1.1759658
1.1764712
1.1758899
1.1761976
1.1759152
1.1760336
1.1760027
1.1759573
1.1758811
1.1762471
1.1763322
1.1764153
1.1764389
1.1763776
1.1763681
1.1764043
1.1763845
1.1763624
1.1762269
1.176477
1.1759087
1.1763855
1.1757935
1.1760917
1.1758541
1.1759785
1.1758564
1.1758694
1.1758414
1.1760344
1.1761787
1.1762913
1.176314
1.1763289
1.1763174
1.1763283
1.1763275
1.1763289
1.1762337
1.1763962
1.1757409
1.1763172
1.175767
1.176079
1.1757651
1.1759001
1.1756705
1.1757454
1.175677
1.1759789
1.176103
1.1761373
1.176158
1.1761762
1.1761532
1.1761499
1.1761329
1.1761293
1.1760005
1.1762326
1.1755841
1.1762106
1.1755718
1.1758501
1.1756431
1.1758283
1.1757127
1.1757694
1.1757409
1.1756805
1.1758318
1.1759089
1.1759077
1.1758753
1.1758875
1.1758584
1.1758468
1.1759102
1.1755533
1.1761202
1.1754198
1.1759959
1.1753986
1.1756527
1.1753859
1.1755023
1.1754109
1.175423
1.1753448
1.1755132
1.1756708
1.1755818
1.1755854
1.1755823
1.1755885
1.1755824
1.1755679
1.1755544
1.1751244
1.1758063
1.1751362
1.1755642
1.1751105
1.1754735
1.175157
1.1752467
1.1751553
1.1752039
1.1751761
1.1750026
1.1752333
1.1752046
1.1751988
1.1752046
1.1752067
1.1751754
1.1751375
1.1751062
1.1750162
1.175285
1.1747132
1.1752698
1.1747763
1.1749608
1.1747495
1.1747688
1.1746922
1.1746617
1.174606
1.1748492
1.1749851
1.1747412
1.1747341
1.1747346
1.1747098
1.1747073
1.1747039
1.1747101
1.1746348
1.1748133
1.1745162
1.1745498
1.1742471
1.1744777
1.1743022
1.1743466
1.174235
1.1742778
1.1742885
1.1743779
1.1745396
1.1742481
1.1742547
1.1742403
1.1742571
1.1742511
1.1742564
1.1742527
1.1741896
1.1743058
1.1741213
1.1735659
1.1740763
1.1740466
1.1738563
1.1738709
1.1738342
1.1738277
1.1737669
1.1739685
1.1741159
1.173686
1.1736877
1.1736912
1.1736734
1.1736851
1.1736662
1.1736887
1.1736473
1.1737307
1.1739633
1.1730578
1.1732638
1.1734379
1.1732839
1.1733466
1.1734412
1.1734087
1.1734489
1.173256
1.1734444
1.1730482
1.1730464
1.1730466
1.1730489
1.1730577
1.173098
1.1731289
1.1731568
1.1730517
1.1739244
1.1722374
1.1726122
1.1727137
1.1727298
1.1728568
1.1728405
1.1728572
1.172811
1.172847
1.1730218
1.1724577
1.1724589
1.1724607
1.172478
1.172493
1.1724651
1.1724756
1.1725821
1.1725998
1.1733035
1.1715617
1.1725494
1.1717645
1.1721274
1.1722755
1.172264
1.1722842
1.1722861
1.1723444
1.1725263
1.1718639
1.1718258
1.1718364
1.1718206
1.17184
1.1718523
1.1718749
1.1718785
1.1719368
1.1720562
1.1716922
1.1721364
1.1712399
1.1716953
1.1715672
1.1716848
1.1717393
1.1717946
1.1717598
1.1719307
1.1712352
1.1711974
1.171208
1.1712163
1.1712186
1.1712271
1.1712469
1.1712443
1.1713068
1.1713989
1.1711657
1.1717376
1.1705683
1.1712969
1.1709365
1.171243
1.1710663
1.1711964
1.1711893
1.1713797
1.1706046
1.1705971
1.170589
1.1705734
1.1705853
1.1706004
1.1706003
1.1705987
1.1705762
1.1702604
1.1709613
1.170042
1.1713857
1.1706957
1.1708028
1.1707112
1.1707741
1.1707122
1.1707695
1.1708901
1.1700083
1.1700025
1.1700052
1.1700138
1.1700055
1.1699967
1.1700046
1.1700119
1.1700183
1.1700345
1.1701174
1.1702894
1.1699129
1.1700004
1.1702494
1.1701736
1.170217
1.1701763
1.1701693
1.1703509
1.1694192
1.1694061
1.1694147
1.1694097
1.1694223
1.1694299
1.1694354
1.1694471
1.1694646
1.1694913
1.1695203
1.1696015
1.1695692
1.169753
1.1693985
1.1695561
1.1694886
1.1695715
1.1695708
1.169788
1.1688533
1.1688605
1.1688709
1.1688709
1.1688682
1.1688686
1.1688809
1.1689022
1.1689159
1.1689525
1.1690018
1.1690301
1.1690085
1.1689962
1.1691295
1.169043
1.169116
1.1690654
1.1691055
1.1693006
1.1683336
1.1683353
1.1683262
1.1683181
1.1683426
1.1683488
1.1683603
1.1683692
1.1683959
1.1684329
1.1684753
1.1685187
1.1685622
1.1685949
1.1685861
1.1686238
1.1686091
1.1686144
1.1686252
1.1688062
1.1678424
1.1678324
1.1678371
1.1678452
1.1678494
1.1678627
1.1678667
1.1678931
1.167923
1.1679588
1.1680115
1.1680669
1.1681221
1.1681596
1.168187
1.1682289
1.1681257
1.1681596
1.16816
1.1683409
1.1673991
1.1674056
1.1674067
1.1673907
1.1674067
1.1674124
1.1674396
1.1674515
1.1674867
1.1675319
1.1675895
1.1676331
1.1676825
1.1677334
1.1677652
1.1677894
1.1677824
1.1677979
1.167783
1.1679565
1.1670098
1.1670077
1.1670184
1.1670245
1.1670265
1.1670351
1.1670523
1.1670779
1.1671025
1.167164
1.1672282
1.1672846
1.167323
1.1673609
1.1673836
1.1673996
1.1674077
1.1674115
1.1674269
1.1676161
1.1666889
1.166687
1.1666925
1.1666933
1.1667089
1.1667181
1.1667393
1.1667658
1.166801
1.1668492
1.1668999
1.1669707
1.1670145
1.1670448
1.1670739
1.1670906
1.1671092
1.167122
1.1671184
1.1673121
1.166424
1.1664271
1.1664328
1.166434
1.1664431
1.1664583
1.1664721
1.1665039
1.1665412
1.1665948
1.1666608
1.1667149
1.1667702
1.1668025
1.1668296
1.1668519
1.1668632
1.1668728
1.1668611
1.1670564
1.1662039
1.1662065
1.1662082
1.1662098
1.1662131
1.1662282
1.1662515
1.166279
1.1663172
1.166363
1.1664222
1.1664798
1.1665224
1.1665621
1.1665922
1.1666117
1.166623
1.1666277
1.1666375
1.1668157
1.1755103
1.1755012
1.175575
1.1755766
1.1755904
1.1755583
1.1755604
1.1755604
1.175566
1.1755595
1.1755803
1.1755278
1.1755538
1.1755466
1.17558
1.1755862
1.1754817
1.1754607
1.1754486
1.1756043
1.1759084
1.1758921
1.175899
1.1758969
1.1758739
1.1759315
1.1758775
1.1758518
1.1757998
1.1758092
1.1758842
1.1756943
1.1758209
1.1757715
1.1759314
1.1762097
1.1752551
1.1755186
1.1754659
1.1756437
1.1761355
1.17616
1.1761607
1.1761417
1.1761654
1.176108
1.1761321
1.1760596
1.1762293
1.1758571
1.1761599
1.1757771
1.1760945
1.1758696
1.1759556
1.1758843
1.1758646
1.1758209
1.1760035
1.1761446
1.1763299
1.1763141
1.1763305
1.1763319
1.1763205
1.1762937
1.1762651
1.1761268
1.1764959
1.1758917
1.1763804
1.1758288
1.1762292
1.1759469
1.1760649
1.1760053
1.1760152
1.1760031
1.176048
1.1762254
1.1764057
1.1764242
1.1764122
1.1763959
1.1763799
1.1763857
1.1763755
1.1761415
1.1766368
1.1759483
1.1765092
1.1758624
1.1762907
1.1759563
1.1761494
1.1760474
1.1760918
1.1760671
1.1761269
1.1762306
1.1764808
1.176511
1.1764874
1.1764682
1.1764571
1.1764506
1.1764403
1.1761222
1.1766891
1.1759626
1.1764924
1.1758722
1.1762706
1.175972
1.1761412
1.1760228
1.1760782
1.1760117
1.176133
1.1762945
1.1764696
1.1764523
1.1764232
1.1764486
1.1764462
1.1764385
1.176432
1.1761469
1.1765753
1.1758569
1.176441
1.1758516
1.1761376
1.1759569
1.1760614
1.1759692
1.1760408
1.1760499
1.1759342
1.1760838
1.1763175
1.1763183
1.1763213
1.1763239
1.1763289
1.176301
1.1762813
1.1762092
1.1765232
1.1757575
1.1763833
1.1758414
1.1760309
1.1758465
1.175931
1.1757978
1.1759199
1.1758475
1.175867
1.1760558
1.1761604
1.1761639
1.1761867
1.176173
1.1761433
1.1761263
1.1760909
1.1758928
1.1763403
1.1756124
1.1762299
1.1757061
1.1759286
1.1757067
1.1757224
1.1756853
1.175677
1.1756443
1.1757352
1.1758808
1.175925
1.1759393
1.1759156
1.1759164
1.1759088
1.1758909
1.1759246
1.1755796
1.1761115
1.1754103
1.176079
1.1753844
1.1756781
1.1754147
1.175561
1.1754429
1.1754747
1.1753709
1.1756026
1.1757311
1.1756444
1.1755753
1.1755925
1.1756006
1.1756021
1.1755768
1.1756163
1.1752752
1.1758079
1.1750624
1.1757268
1.1751013
1.1753991
1.1751538
1.1751888
1.1751298
1.175135
1.1751305
1.1751219
1.1753366
1.1752441
1.1752356
1.1752256
1.1752262
1.1751963
1.175193
1.1751994
1.174892
1.175425
1.1747369
1.1753738
1.1747316
1.1750305
1.1747407
1.174846
1.1747544
1.174778
1.1747318
1.1748232
1.1750069
1.1747525
1.1747644
1.1747856
1.1747636
1.1747451
1.1747378
1.1747839
1.1745088
1.1749507
1.1743875
1.1748428
1.1742765
1.1745432
1.1743353
1.1744176
1.1742338
1.1744019
1.1743332
1.1744822
1.1746253
1.174276
1.1742526
1.1742396
1.1742434
1.1742533
1.1742245
1.1742067
1.1739285
1.1743361
1.1744726
1.1739183
1.173698
1.1740216
1.1739143
1.1739761
1.1738819
1.1739655
1.1739219
1.1739072
1.1740698
1.1737054
1.1737057
1.1736992
1.1736947
1.1737015
1.1737046
1.1737155
1.1736197
1.1737594
1.1737457
1.1734053
1.1732228
1.1734681
1.1733876
1.1734692
1.1734559
1.1734597
1.1734094
1.1734543
1.173611
1.173128
1.1730967
1.1730864
1.173087
1.1731013
1.1731139
1.1731167
1.173079
1.1731796
1.1733373
1.1726396
1.1728953
1.1729867
1.1729019
1.1729754
1.1729485
1.1729829
1.1729352
1.1729252
1.1730921
1.1725225
1.1724839
1.1725055
1.172493
1.1725092
1.1725032
1.1725537
1.1725403
1.1723648
1.1719789
1.1728664
1.1725767
1.1721684
1.1725035
1.1723039
1.1723652
1.1723732
1.1724103
1.1723831
1.172564
1.1718752
1.1718796
1.1718891
1.1718925
1.1718911
1.1718954
1.1719262
1.1719985
1.1719481
1.1723924
1.1712713
1.1716998
1.1718119
1.1718516
1.1718194
1.1718561
1.171828
1.1718462
1.171798
1.1719977
1.1712558
1.1712575
1.171262
1.1712671
1.171252
1.1712616
1.1712744
1.1713297
1.1714914
1.1721502
1.1702196
1.1703252
1.1719543
1.1713521
1.1714093
1.1713995
1.1712764
1.1712875
1.1712916
1.1714675
1.1706847
1.1706437
1.170653
1.1706261
1.170647
1.1706477
1.1706715
1.1706919
1.1707628
1.1709413
1.170664
1.1717168
1.1692557
1.1697389
1.1712617
1.1708447
1.1709425
1.1707923
1.1708306
1.1709627
1.1700081
1.170054
1.1700634
1.1700671
1.1700618
1.1700704
1.1700629
1.1700659
1.1700871
1.1701372
1.1701622
1.1702387
1.1701641
1.1704281
1.1697887
1.1700809
1.1700974
1.1701393
1.1701373
1.170318
1.1694636
1.1694636
1.1694587
1.1694563
1.1694702
1.1694739
1.1694837
1.1694977
1.169525
1.1695478
1.1695937
1.1696379
1.1696569
1.1697776
1.1695136
1.1696443
1.1694807
1.1695607
1.1695745
1.1697893
1.1689051
1.1689017
1.168896
1.1689052
1.1689148
1.1689112
1.1689293
1.1689427
1.1689487
1.1689926
1.1690361
1.1690597
1.1690723
1.1691255
1.1690487
1.1691284
1.1690402
1.1690939
1.169079
1.1692958
1.1683651
1.1683765
1.1683795
1.1683779
1.1683856
1.1683884
1.1684005
1.1684211
1.1684501
1.1684682
1.1685087
1.1685713
1.168615
1.1686601
1.1686355
1.1686878
1.1686155
1.168641
1.1686604
1.1688306
1.1678845
1.1678786
1.1678884
1.1678879
1.1679081
1.1679186
1.1679336
1.1679535
1.1679773
1.1680146
1.1680585
1.1681028
1.1681482
1.1682011
1.1681882
1.1681799
1.1682413
1.1682284
1.1682478
1.1684216
1.167453
1.1674532
1.1674506
1.1674548
1.1674504
1.1674599
1.1674676
1.167488
1.1675395
1.1675898
1.1676415
1.1676802
1.1677422
1.1677571
1.1678202
1.1678447
1.1678182
1.1678337
1.1678293
1.168003
1.1670664
1.1670629
1.1670673
1.1670765
1.1670753
1.1670817
1.1671038
1.1671316
1.1671634
1.1672108
1.1672723
1.1673358
1.1673877
1.1674296
1.1674397
1.1674461
1.1674576
1.1674736
1.167463
1.167656
1.1667374
1.166744
1.1667432
1.1667391
1.1667567
1.1667719