/*--------------------------------*- C++ -*----------------------------------*\
| =========                 |                                                 |
| \\      /  F ield         | OpenFOAM: The Open Source CFD Toolbox           |
|  \\    /   O peration     | Version:  1.7.x                                 |
|   \\  /    A nd           | Web:      www.OpenFOAM.com                      |
|    \\/     M anipulation  |                                                 |
\*---------------------------------------------------------------------------*/
FoamFile
{
    version     2.0;
    format      ascii;
    class       volScalarField;
    location    "0.0015";
    object      T;
}
// * * * * * * * * * * * * * * * * * * * * * * * * * * * * * * * * * * * * * //

dimensions      [0 0 0 1 0 0 0];

internalField   nonuniform List<scalar> 
206988
(
300.70326
300.70497
300.6869
300.68997
300.68987
300.68683
300.68698
300.68942
300.69287
300.68868
300.68389
300.68136
300.68618
300.68098
300.68083
300.67939
300.68127
300.69051
300.69199
300.64416
300.72091
300.7214
300.7193
300.71792
300.72698
300.71617
300.72491
300.71615
300.72456
300.71108
300.71474
300.70007
300.70569
300.69146
300.69537
300.67052
300.75109
300.72446
300.70457
300.65563
300.75914
300.74258
300.74629
300.73922
300.74477
300.75651
300.74307
300.72696
300.75073
300.71419
300.75324
300.71692
300.74121
300.72749
300.74429
300.71457
300.72584
300.71861
300.71264
300.66517
300.76354
300.76453
300.76163
300.76938
300.7666
300.76402
300.76753
300.74004
300.7694
300.72839
300.76595
300.71701
300.74288
300.73314
300.74854
300.7356
300.75315
300.78531
300.62503
300.60407
300.78581
300.7841
300.77845
300.77695
300.77635
300.77013
300.77436
300.75026
300.77934
300.73079
300.77964
300.72411
300.7577
300.7237
300.73255
300.75096
300.74553
300.7383
300.70456
300.66639
300.78451
300.78258
300.78204
300.78438
300.78259
300.78297
300.79492
300.75174
300.802
300.74036
300.78465
300.72068
300.75332
300.73526
300.75159
300.75517
300.75092
300.75106
300.73223
300.6771
300.78179
300.78329
300.78527
300.77605
300.77294
300.77977
300.7921
300.74839
300.78795
300.73655
300.77879
300.72586
300.75787
300.73799
300.75007
300.74331
300.74335
300.73592
300.724
300.6871
300.77379
300.7726
300.77337
300.77957
300.79428
300.8054
300.82507
300.76001
300.79552
300.72004
300.7812
300.71208
300.74277
300.73163
300.73738
300.7135
300.70338
300.68764
300.7531
300.71029
300.74868
300.74913
300.75122
300.7485
300.75001
300.75163
300.76897
300.72219
300.77175
300.70204
300.75455
300.68704
300.72082
300.70218
300.72951
300.70475
300.6935
300.6774
300.76069
300.70628
300.72604
300.72713
300.72646
300.72841
300.72646
300.7161
300.74356
300.69452
300.7359
300.66587
300.72642
300.66872
300.69674
300.67223
300.68309
300.67284
300.67351
300.66754
300.68523
300.64644
300.70012
300.69667
300.69894
300.69487
300.69328
300.68773
300.68856
300.64835
300.70502
300.64318
300.70573
300.64042
300.66731
300.64001
300.64239
300.63032
300.63725
300.63683
300.64226
300.59775
300.65541
300.65665
300.6531
300.64949
300.64547
300.64661
300.66206
300.61521
300.66785
300.61006
300.66051
300.60214
300.62724
300.60126
300.60971
300.60765
300.61617
300.61891
300.57624
300.53277
300.61102
300.61048
300.60899
300.61358
300.61382
300.60949
300.60729
300.586
300.62783
300.57922
300.60254
300.55662
300.57384
300.56199
300.5613
300.55635
300.55753
300.54844
300.57202
300.51694
300.54969
300.55206
300.55604
300.55369
300.5516
300.55128
300.55338
300.54196
300.52004
300.46542
300.63186
300.54894
300.54611
300.52318
300.52406
300.51749
300.52053
300.5168
300.52451
300.4777
300.4986
300.49816
300.49097
300.4895
300.49332
300.48429
300.47688
300.41085
300.54639
300.43112
300.58434
300.48475
300.49426
300.4804
300.4748
300.45798
300.47725
300.45415
300.51669
300.45207
300.42978
300.4322
300.43576
300.4338
300.42894
300.42165
300.40557
300.36311
300.49023
300.47345
300.3917
300.42496
300.4326
300.42512
300.43672
300.41998
300.42772
300.42765
300.41312
300.37284
300.36468
300.37187
300.36978
300.36714
300.35937
300.35804
300.35398
300.32483
300.3233
300.17607
300.55624
300.34708
300.48099
300.36693
300.42514
300.37571
300.40639
300.41482
300.35044
300.30914
300.31243
300.30662
300.30828
300.30643
300.30586
300.30196
300.30414
300.27413
300.23181
300.04301
300.54793
300.26394
300.49341
300.34241
300.35745
300.3289
300.35668
300.31903
300.3261
300.27263
300.23505
300.24426
300.24228
300.24162
300.23907
300.23711
300.23261
300.21727
300.17708
299.9762
300.48825
300.15764
300.43779
300.26813
300.33511
300.28252
300.27581
300.26354
300.26658
300.21501
300.2001
300.17861
300.17988
300.18194
300.17952
300.18424
300.17733
300.17505
300.17575
300.16739
300.14748
300.00269
300.39776
300.26143
300.23028
300.20993
300.21851
300.20881
300.22729
300.18492
300.11703
300.11995
300.12063
300.1192
300.12255
300.12005
300.1173
300.11643
300.12099
300.12395
300.12292
300.11973
300.14148
300.07851
300.21909
300.1658
300.17323
300.16238
300.15124
300.10696
300.04356
300.0639
300.06071
300.06008
300.05921
300.05888
300.06618
300.06766
300.06468
300.06563
300.06782
300.06285
300.05756
300.0328
300.13294
300.10558
300.12909
300.11123
300.09786
300.03502
300.00876
300.00429
300.00476
300.00166
300.00269
300.00327
300.00599
300.00625
300.00738
300.01526
300.01791
300.01923
300.01687
299.99636
300.05258
300.04027
300.0453
300.04175
300.03629
299.98774
299.94617
299.9481
299.9504
299.9483
299.95033
299.95141
299.95002
299.95258
299.95511
299.95936
299.96289
299.96729
299.96546
299.97728
299.98553
299.99965
299.96258
299.97651
299.97614
299.9333
299.89521
299.89578
299.89797
299.90164
299.89943
299.90063
299.90271
299.90381
299.90825
299.9122
299.90739
299.91628
299.92622
299.92355
299.92389
299.91822
299.94379
299.93164
299.94024
299.88714
299.85554
299.85522
299.85641
299.85355
299.85532
299.85486
299.85553
299.85998
299.86164
299.86486
299.87517
299.87923
299.8821
299.88432
299.89043
299.88057
299.88487
299.89126
299.89877
299.84754
299.81584
299.81611
299.81186
299.81397
299.81505
299.81672
299.81963
299.82012
299.82238
299.82973
299.83575
299.84361
299.84772
299.84865
299.84888
299.8539
299.85643
299.85798
299.85367
299.81294
299.78082
299.7804
299.78325
299.78285
299.78316
299.78464
299.78684
299.7891
299.79422
299.79784
299.80146
299.81073
299.81605
299.82097
299.82264
299.82668
299.82533
299.82871
299.83196
299.77965
299.75562
299.75581
299.75674
299.75633
299.75748
299.7588
299.76044
299.76295
299.76716
299.77133
299.7781
299.78362
299.78776
299.79177
299.7942
299.79894
299.80286
299.79819
299.80007
299.7535
299.73104
299.7309
299.73126
299.7314
299.73306
299.73445
299.73628
299.739
299.74185
299.74911
299.75627
299.7592
299.76423
299.76826
299.77009
299.76983
299.77082
299.77311
299.77181
299.72587
300.6762
300.66538
300.71168
300.69545
300.69549
300.68949
300.69071
300.69103
300.68799
300.68275
300.68654
300.6864
300.67734
300.67642
300.68742
300.68854
300.68918
300.68978
300.68998
300.64124
300.72721
300.71968
300.72517
300.72545
300.72742
300.72285
300.73208
300.72023
300.72218
300.71798
300.72381
300.71445
300.71172
300.69604
300.69699
300.69622
300.70729
300.68727
300.7038
300.65858
300.74465
300.75025
300.7464
300.74384
300.74317
300.7528
300.74792
300.7305
300.75489
300.72239
300.73604
300.71137
300.73969
300.7148
300.72799
300.72511
300.72694
300.71746
300.70064
300.66606
300.76898
300.76622
300.76795
300.77363
300.76457
300.76779
300.76051
300.74089
300.77575
300.73978
300.76615
300.71704
300.7466
300.73441
300.75361
300.73999
300.72204
300.70747
300.73346
300.69211
300.77404
300.78237
300.78282
300.78152
300.78649
300.78054
300.787
300.74743
300.79476
300.74368
300.77639
300.7284
300.7487
300.73413
300.73774
300.72774
300.73535
300.75275
300.71483
300.6692
300.78007
300.77917
300.78404
300.78241
300.77655
300.77367
300.79058
300.75489
300.79898
300.73376
300.77717
300.71292
300.74955
300.71799
300.75039
300.72612
300.73864
300.73984
300.72245
300.67621
300.78957
300.78599
300.78155
300.77366
300.7847
300.7746
300.7846
300.73878
300.7836
300.72387
300.78696
300.72983
300.76124
300.7283
300.73694
300.72845
300.74361
300.74536
300.69478
300.6572
300.77174
300.77038
300.76617
300.77306
300.75102
300.73242
300.75335
300.71668
300.7796
300.72898
300.77212
300.71879
300.73855
300.69895
300.71047
300.71866
300.7316
300.74311
300.67316
300.63622
300.75146
300.75233
300.75172
300.74238
300.74746
300.73599
300.75236
300.7229
300.77503
300.70025
300.75569
300.68588
300.72359
300.68523
300.70181
300.69963
300.70529
300.70683
300.67355
300.65065
300.71922
300.72601
300.7236
300.7276
300.73053
300.72972
300.74002
300.68981
300.73315
300.67072
300.72804
300.66914
300.69067
300.67249
300.68047
300.66842
300.66268
300.66012
300.67525
300.63537
300.69989
300.69306
300.69416
300.69726
300.6877
300.67787
300.69246
300.65125
300.70457
300.64726
300.70499
300.63506
300.66119
300.64527
300.64791
300.6346
300.63785
300.64301
300.65902
300.61207
300.65191
300.65138
300.64925
300.64755
300.65027
300.65411
300.64766
300.6356
300.67054
300.61674
300.66405
300.60502
300.61796
300.58785
300.60453
300.59868
300.59785
300.60839
300.58832
300.5598
300.61214
300.61336
300.61265
300.6145
300.61189
300.61224
300.62017
300.62533
300.58703
300.56304
300.60458
300.55287
300.58465
300.56895
300.57838
300.57172
300.56772
300.56201
300.56879
300.5189
300.55608
300.55484
300.55373
300.55532
300.55174
300.54558
300.53272
300.47217
300.61527
300.50794
300.59053
300.50609
300.53187
300.51135
300.51806
300.51263
300.51988
300.52374
300.50748
300.45981
300.49979
300.49453
300.49349
300.49546
300.48975
300.48689
300.46837
300.42889
300.54455
300.52275
300.477
300.47609
300.49402
300.46243
300.47376
300.46714
300.46263
300.47231
300.46486
300.41848
300.4316
300.4358
300.43713
300.43179
300.43272
300.42112
300.40704
300.36433
300.46116
300.35951
300.52875
300.43006
300.4496
300.4264
300.42099
300.41748
300.41763
300.42016
300.43071
300.37334
300.36983
300.36946
300.3733
300.36883
300.3604
300.36243
300.35321
300.34094
300.31273
300.16142
300.58882
300.47076
300.33349
300.39195
300.33002
300.33692
300.38326
300.3636
300.37518
300.32929
300.30293
300.30472
300.30376
300.30442
300.31087
300.30126
300.29182
300.27942
300.2443
300.10262
300.50547
300.32808
300.38699
300.32255
300.34635
300.32538
300.32004
300.32045
300.30939
300.26979
300.24216
300.24202
300.24076
300.24016
300.24468
300.23872
300.23317
300.22146
300.16778
299.97508
300.54244
300.4734
300.13381
300.28658
300.2002
300.2688
300.22451
300.25236
300.24688
300.20467
300.17813
300.1783
300.1822
300.18287
300.17785
300.17665
300.17721
300.17752
300.18106
300.18797
300.14971
300.05434
300.31971
300.1505
300.30499
300.20478
300.23999
300.20762
300.24707
300.19012
300.12671
300.12255
300.11955
300.12113
300.12328
300.12252
300.11989
300.12086
300.12088
300.12497
300.12064
300.08062
300.16202
300.10005
300.19584
300.15296
300.17033
300.1334
300.1692
300.11424
300.05354
300.06181
300.05864
300.06039
300.06064
300.06198
300.06701
300.06624
300.0655
300.0643
300.06909
300.06743
300.07962
300.09299
300.07475
300.10291
300.07839
300.08695
300.07712
300.03586
300.00234
300.00261
300.00387
300.00303
300.00274
300.00643
300.00623
300.0073
300.00855
300.0108
300.01537
300.01992
300.01781
300.00447
300.05613
300.04638
300.03857
300.03739
300.04348
299.99343
299.95445
299.94843
299.9474
299.94771
299.95151
299.94665
299.95125
299.95341
299.95647
299.96371
299.9656
299.96693
299.97362
299.97289
299.97467
299.97053
299.98972
299.97336
299.99382
299.94258
299.8987
299.89963
299.90032
299.8993
299.90137
299.9044
299.90098
299.906
299.90806
299.90759
299.9136
299.92467
299.92484
299.92841
299.93307
299.95335
299.91239
299.9395
299.92478
299.88107
299.85289
299.85408
299.85694
299.85581
299.85335
299.85535
299.85821
299.85926
299.86364
299.87159
299.87628
299.8765
299.88274
299.88667
299.88566
299.87959
299.88846
299.89585
299.89303
299.84544
299.8155
299.81502
299.81439
299.81461
299.81614
299.81717
299.8194
299.82034
299.8247
299.8298
299.83789
299.84182
299.84671
299.8454
299.85653
299.8565
299.85809
299.85644
299.86072
299.8108
299.78165
299.78192
299.78386
299.7833
299.78329
299.78346
299.7828
299.78876
299.79323
299.79741
299.80194
299.81065
299.8145
299.82256
299.81948
299.82699
299.82982
299.82502
299.82334
299.78142
299.75618
299.75585
299.75594
299.75567
299.75828
299.75907
299.76233
299.76308
299.76698
299.77332
299.77887
299.78597
299.78994
299.79387
299.80005
299.80083
299.80063
299.80411
299.79955
299.75392
299.7324
299.73324
299.73337
299.73437
299.73431
299.73564
299.73736
299.74044
299.74406
299.7485
299.75678
299.75977
299.7642
299.76752
299.77054
299.77176
299.77253
299.77476
299.77596
299.72907
300.70467
300.69983
300.68367
300.68557
300.69086
300.69158
300.68925
300.69299
300.69221
300.69154
300.69331
300.69001
300.68627
300.68426
300.68433
300.68745
300.69084
300.69516
300.67338
300.62912
300.72512
300.72571
300.72823
300.72792
300.73027
300.71583
300.7288
300.72513
300.72201
300.71488
300.71579
300.74739
300.65823
300.68601
300.70691
300.69497
300.68889
300.68847
300.68723
300.64575
300.74944
300.74775
300.74966
300.74902
300.74963
300.75522
300.74952
300.73306
300.76754
300.72339
300.75349
300.72814
300.73779
300.75067
300.69311
300.7062
300.69808
300.68803
300.69562
300.65967
300.77369
300.77014
300.77079
300.7648
300.75919
300.76202
300.75693
300.7489
300.7835
300.72733
300.76611
300.73018
300.75105
300.73299
300.72816
300.72711
300.72689
300.72202
300.73279
300.67846
300.78211
300.78595
300.77788
300.78727
300.7862
300.77587
300.77708
300.74126
300.78036
300.74286
300.77975
300.72493
300.75351
300.73555
300.74627
300.73192
300.73807
300.73909
300.73371
300.68573
300.77694
300.78094
300.7874
300.77589
300.77878
300.7856
300.78313
300.7591
300.79336
300.73689
300.78096
300.71178
300.75702
300.73326
300.75643
300.74371
300.74226
300.73968
300.73269
300.68684
300.78621
300.78017
300.77998
300.78223
300.78047
300.77196
300.78339
300.74453
300.79068
300.72783
300.78696
300.7277
300.75095
300.71574
300.7366
300.72713
300.72833
300.71376
300.7422
300.69444
300.77287
300.77372
300.77188
300.77327
300.76101
300.76175
300.76194
300.72847
300.78739
300.7238
300.77818
300.71821
300.73431
300.7145
300.72382
300.70029
300.71456
300.69841
300.71745
300.67275
300.7532
300.75467
300.75428
300.74685
300.74853
300.74454
300.76463
300.72798
300.77846
300.70244
300.7559
300.69948
300.71603
300.71121
300.7116
300.7056
300.71237
300.69703
300.70574
300.66389
300.72593
300.72589
300.72252
300.73148
300.73468
300.73201
300.72762
300.67716
300.75113
300.67541
300.72531
300.6859
300.6886
300.6775
300.6821
300.67331
300.68206
300.67901
300.6589
300.62035
300.69498
300.69618
300.69658
300.69351
300.68241
300.6779
300.67061
300.64429
300.68498
300.68101
300.6964
300.64263
300.66654
300.63765
300.62605
300.61252
300.64458
300.63643
300.66554
300.6127
300.65615
300.654
300.6464
300.64481
300.65267
300.65389
300.65126
300.63672
300.66122
300.61332
300.65899
300.59841
300.62602
300.60417
300.61078
300.60348
300.62084
300.63048
300.58023
300.54346
300.60942
300.60925
300.61458
300.61345
300.61515
300.61107
300.60963
300.5959
300.6167
300.56487
300.60861
300.5599
300.58502
300.56613
300.57683
300.57106
300.56847
300.56785
300.55536
300.51352
300.55569
300.55393
300.55337
300.55495
300.54686
300.54939
300.54446
300.53584
300.57839
300.59021
300.48517
300.51008
300.54314
300.51957
300.52816
300.52154
300.52465
300.52145
300.5155
300.46505
300.48401
300.49747
300.49751
300.49384
300.50005
300.49121
300.49042
300.45106
300.48924
300.41575
300.57816
300.47379
300.50419
300.47559
300.4809
300.47437
300.48359
300.48385
300.44685
300.41339
300.4359
300.4368
300.4388
300.43742
300.43278
300.42492
300.40779
300.37913
300.45718
300.4157
300.43604
300.32211
300.57263
300.46497
300.42865
300.41838
300.41839
300.42712
300.40854
300.37606
300.37008
300.37125
300.37009
300.36402
300.36573
300.36036
300.36358
300.34891
300.31077
300.1626
300.58772
300.43486
300.39842
300.40054
300.37103
300.38184
300.38981
300.3873
300.33572
300.29496
300.29797
300.30946
300.30805
300.31275
300.30679
300.30989
300.29821
300.28001
300.24283
300.09407
300.53233
300.38183
300.33194
300.33491
300.31204
300.31067
300.31568
300.31291
300.31881
300.26126
300.23564
300.24499
300.24207
300.24283
300.24183
300.24223
300.23566
300.2197
300.18694
299.99741
300.52592
300.47769
300.07347
300.1769
300.28367
300.24015
300.27957
300.26003
300.28174
300.22817
300.18544
300.18232
300.18574
300.1837
300.18604
300.17864
300.18494
300.18847
300.17353
300.19073
300.16026
300.0076
300.41738
300.24605
300.20208
300.18912
300.20718
300.20366
300.21049
300.16599
300.11497
300.12516
300.12307
300.12096
300.1203
300.12324
300.1238
300.12435
300.13066
300.15092
300.12415
300.25625
300.00221
300.17163
300.04515
300.12794
300.11244
300.13451
300.1268
300.08901
300.05921
300.06151
300.05893
300.05781
300.06219
300.06506
300.06342
300.06318
300.06654
300.06964
300.06993
300.08161
300.05913
300.04419
300.11148
300.09268
300.10401
300.08751
300.0969
300.04583
300.00704
300.0038
300.0067
300.0084
300.00531
300.00569
300.0053
300.00912
300.01053
300.01325
300.01834
300.01548
300.01781
300.01794
300.04416
300.03333
300.04138
300.04447
300.03915
299.98636
299.94954
299.95077
299.94984
299.95039
299.95018
299.95059
299.956
299.951
299.96009
299.96108
299.96359
299.97236
299.97318
299.97853
299.9778
299.97601
299.9897
299.98618
299.98793
299.94345
299.90031
299.90094
299.90314
299.90089
299.90288
299.90393
299.90444
299.90693
299.9066
299.91082
299.91602
299.92064
299.92383
299.92882
299.9278
299.91853
299.94727
299.93715
299.94886
299.90167
299.85494
299.85623
299.85725
299.85724
299.85909
299.8582
299.85793
299.86314
299.86567
299.87243
299.87985
299.88549
299.8853
299.88207
299.88258
299.87772
299.8938
299.89853
299.90227
299.85355
299.81516
299.81528
299.81495
299.81541
299.81485
299.81919
299.82087
299.82356
299.82384
299.83103
299.83774
299.84185
299.84828
299.85199
299.85472
299.8566
299.85937
299.86182
299.85919
299.81399
299.78276
299.78326
299.7841
299.78442
299.78515
299.78509
299.78698
299.78926
299.79214
299.79731
299.80523
299.81098
299.81634
299.81871
299.82667
299.82962
299.83055
299.82307
299.82906
299.78014
299.75679
299.75725
299.7578
299.75721
299.75881
299.75991
299.76181
299.76484
299.76903
299.77488
299.77868
299.78854
299.79162
299.79543
299.79838
299.79888
299.8015
299.80239
299.80313
299.75675
299.73443
299.73438
299.73462
299.73487
299.73603
299.73703
299.73862
299.74095
299.74556
299.75059
299.75765
299.76136
299.7658
299.76955
299.77182
299.77409
299.77412
299.77677
299.7765
299.73017
300.69504
300.69253
300.70204
300.69514
300.69926
300.69302
300.69069
300.69591
300.69152
300.69535
300.68879
300.68493
300.69196
300.67981
300.68418
300.69436
300.69967
300.71423
300.65144
300.61714
300.73521
300.73777
300.73334
300.74264
300.75402
300.69248
300.73007
300.74749
300.71357
300.73544
300.70158
300.71913
300.70609
300.70466
300.71262
300.69751
300.6966
300.69848
300.67251
300.63501
300.75147
300.75477
300.74829
300.75221
300.74556
300.7573
300.74758
300.74153
300.75636
300.72677
300.76924
300.82516
300.63089
300.72453
300.8173
300.96677
300.43731
300.58075
300.61112
300.58705
300.76864
300.77305
300.77645
300.76475
300.77013
300.76706
300.76845
300.74566
300.78715
300.73759
300.77602
300.72752
300.73507
300.72115
300.75807
300.76589
300.69104
300.68284
300.69719
300.6511
300.78279
300.7811
300.78154
300.78048
300.78317
300.78301
300.7798
300.74707
300.80123
300.74062
300.78496
300.72614
300.75416
300.72921
300.76036
300.74533
300.73961
300.72969
300.72257
300.68046
300.79149
300.78619
300.77699
300.78227
300.78749
300.78326
300.77887
300.75742
300.79865
300.73032
300.79002
300.71228
300.76628
300.74637
300.75687
300.74022
300.75943
300.77039
300.68025
300.65522
300.78365
300.7779
300.79185
300.79242
300.77967
300.77879
300.77541
300.75835
300.80174
300.72638
300.78319
300.73294
300.76131
300.73754
300.73881
300.74679
300.75108
300.75187
300.70225
300.6613
300.78008
300.77609
300.77197
300.77473
300.76995
300.76524
300.76475
300.75827
300.78438
300.72264
300.78051
300.7119
300.74356
300.71902
300.73042
300.72314
300.73476
300.73966
300.68464
300.64714
300.75955
300.75471
300.74907
300.75353
300.7503
300.74838
300.75159
300.74928
300.75857
300.69394
300.75633
300.70434
300.73695
300.69758
300.71467
300.70409
300.71279
300.68958
300.70822
300.66443
300.72934
300.72999
300.73643
300.7315
300.73557
300.73256
300.73335
300.6889
300.74193
300.67472
300.73234
300.67513
300.70597
300.67808
300.68768
300.67869
300.68766
300.69681
300.6556
300.61281
300.69731
300.69628
300.6955
300.69121
300.68794
300.68392
300.68087
300.64336
300.72252
300.65328
300.69676
300.65216
300.67329
300.63776
300.64071
300.63183
300.62873
300.62536
300.67277
300.61086
300.6539
300.6558
300.65203
300.65004
300.65354
300.6558
300.65176
300.6416
300.66205
300.60114
300.66988
300.60499
300.6305
300.60917
300.62448
300.61829
300.63328
300.6382
300.57795
300.5414
300.6099
300.61203
300.61093
300.61582
300.61414
300.61099
300.60623
300.59309
300.6022
300.53312
300.6496
300.58472
300.59758
300.57359
300.57845
300.58727
300.58054
300.5705
300.54969
300.50594
300.55391
300.5522
300.55531
300.55018
300.55073
300.54815
300.55215
300.53542
300.55944
300.49699
300.56128
300.57369
300.55327
300.53165
300.53139
300.53066
300.53164
300.54344
300.49053
300.45143
300.49858
300.49825
300.49699
300.50092
300.49705
300.50013
300.49347
300.47496
300.47058
300.37582
300.61965
300.49844
300.50425
300.4804
300.47634
300.46054
300.47319
300.45742
300.49238
300.44422
300.44415
300.44453
300.44394
300.44247
300.43909
300.42631
300.42025
300.39717
300.37519
300.22284
300.65203
300.4318
300.50014
300.45039
300.43632
300.4264
300.42905
300.43338
300.42507
300.37902
300.37239
300.37221
300.37145
300.36637
300.36508
300.37005
300.367
300.33518
300.32347
300.14501
300.58994
300.30976
300.52603
300.42043
300.3962
300.38117
300.38664
300.3746
300.36433
300.31626
300.30255
300.31111
300.31057
300.3116
300.30878
300.30433
300.30083
300.29293
300.28369
300.2504
300.34931
300.22464
300.45703
300.34058
300.374
300.33466
300.32287
300.30951
300.31818
300.27318
300.2424
300.24913
300.24698
300.24354
300.24444
300.24245
300.23928
300.23695
300.22935
300.19882
300.27614
300.11944
300.42456
300.24276
300.32547
300.26259
300.28649
300.27105
300.26232
300.2196
300.1819
300.1837
300.18612
300.18902
300.18958
300.18496
300.18778
300.18508
300.20052
300.27121
300.127
300.3483
300.01861
300.18967
300.16661
300.1907
300.17501
300.19224
300.17858
300.14005
300.122
300.12351
300.12322
300.12052
300.12488
300.12726
300.12797
300.12883
300.12899
300.13141
300.12945
300.0871
300.1927
300.17453
300.11011
300.13517
300.1186
300.13481
300.13162
300.08982
300.0647
300.0682
300.0667
300.06778
300.06668
300.06577
300.06714
300.06791
300.0695
300.07069
300.07667
300.07104
300.07265
300.04185
300.13276
300.09937
300.11162
300.09996
300.09417
300.0432
300.00859
300.00698
300.00528
300.00419
300.00741
300.00904
300.00946
300.00938
300.01329
300.01391
300.01647
300.02238
300.03027
300.04934
300.01575
300.04614
300.02654
300.0435
300.03271
299.98305
299.95217
299.95205
299.95559
299.95642
299.95309
299.95394
299.95521
299.95915
299.96112
299.96414
299.96904
299.97251
299.97323
299.97497
299.98412
299.97995
299.98635
299.98715
299.98543
299.94032
299.90224
299.90505
299.90502
299.90333
299.90481
299.90443
299.90819
299.90855
299.91125
299.91658
299.92085
299.92358
299.92371
299.92475
299.926
299.92097
299.95121
299.94563
299.94657
299.90197
299.85783
299.85669
299.85792
299.86037
299.8601
299.86219
299.86086
299.86602
299.86871
299.87339
299.87833
299.886
299.88888
299.88785
299.88883
299.88907
299.89539
299.89408
299.8997
299.85626
299.82013
299.82141
299.82018
299.81782
299.82073
299.82257
299.82429
299.82666
299.83311
299.83477
299.83948
299.84501
299.85159
299.85475
299.85863
299.86129
299.8641
299.8657
299.86356
299.81621
299.7868
299.7879
299.78809
299.78761
299.78681
299.78874
299.7897
299.79224
299.79639
299.80242
299.81126
299.8138
299.81961
299.82523
299.82793
299.83081
299.83101
299.83072
299.83351
299.78465
299.75955
299.75937
299.75933
299.76016
299.7608
299.76142
299.7648
299.76664
299.77135
299.77675
299.78222
299.78929
299.79256
299.79785
299.8013
299.80313
299.8053
299.80569
299.81097
299.76146
299.73694
299.73687
299.73743
299.73843
299.74032
299.74078
299.74123
299.74367
299.74709
299.753
299.75958
299.76568
299.77204
299.776
299.77899
299.78156
299.78382
299.78562
299.78505
299.73885
300.71107
300.70915
300.68592
300.68932
300.69311
300.69917
300.69746
300.69542
300.69069
300.68993
300.69054
300.69171
300.69195
300.68693
300.6821
300.67755
300.70245
300.70937
300.71114
300.66854
300.73594
300.7383
300.73576
300.73217
300.7402
300.72031
300.7309
300.72639
300.72382
300.71565
300.72908
300.70852
300.71761
300.69667
300.66713
300.59006
300.83642
300.76047
300.77735
300.72882
300.75856
300.75792
300.75504
300.75833
300.75173
300.76257
300.75551
300.73989
300.76012
300.72396
300.75941
300.72155
300.73642
300.71759
300.7306
300.72665
300.74111
300.74542
300.70177
300.66325
300.77347
300.77777
300.77215
300.76938
300.76848
300.76792
300.76229
300.75615
300.80031
300.74291
300.77907
300.72474
300.75526
300.73314
300.74831
300.73306
300.74294
300.73514
300.72924
300.67956
300.79065
300.78575
300.78781
300.78999
300.79074
300.78524
300.78661
300.75453
300.80789
300.73593
300.79013
300.72765
300.76562
300.74548
300.75052
300.7386
300.74636
300.73724
300.73097
300.69921
300.78732
300.7802
300.78484
300.7884
300.78866
300.78718
300.78975
300.76604
300.79878
300.72584
300.80318
300.73116
300.7681
300.74008
300.75316
300.74044
300.74576
300.75105
300.73772
300.6921
300.7889
300.78853
300.79428
300.7851
300.78212
300.77852
300.78079
300.74757
300.80737
300.73348
300.79121
300.73452
300.75501
300.72673
300.74501
300.74004
300.73437
300.72367
300.75669
300.71773
300.77485
300.7809
300.77984
300.78016
300.77507
300.77677
300.77409
300.76421
300.79852
300.7311
300.78599
300.72458
300.74716
300.71672
300.74355
300.73237
300.73306
300.73628
300.73562
300.68234
300.75686
300.75626
300.74944
300.75154
300.75597
300.7545
300.75216
300.7396
300.77756
300.70479
300.76619
300.7116
300.73173
300.71559
300.71314
300.70974
300.70933
300.70748
300.68542
300.64811
300.73272
300.72998
300.73427
300.73346
300.73304
300.73209
300.73402
300.69691
300.74838
300.67569
300.73419
300.68067
300.71682
300.67884
300.68337
300.67693
300.68267
300.69606
300.64076
300.60415
300.70026
300.70496
300.70055
300.69743
300.69366
300.69179
300.70074
300.66293
300.7155
300.65145
300.71005
300.64634
300.67568
300.65274
300.6683
300.65389
300.65819
300.65036
300.65336
300.59625
300.65295
300.655
300.65619
300.65395
300.65813
300.65393
300.65379
300.61499
300.67656
300.59932
300.67117
300.60004
300.63926
300.62163
300.62602
300.61778
300.62033
300.62172
300.6002
300.55077
300.61582
300.61258
300.60608
300.60963
300.61047
300.6048
300.60525
300.58153
300.61718
300.54654
300.63564
300.56896
300.59579
300.57762
300.58412
300.60095
300.56755
300.57505
300.53939
300.50067
300.56365
300.56181
300.56502
300.56324
300.55912
300.56325
300.56301
300.5394
300.52474
300.49057
300.62809
300.54114
300.54879
300.52572
300.53885
300.52697
300.5207
300.51951
300.52577
300.48224
300.50476
300.50436
300.50547
300.50578
300.50313
300.50075
300.49807
300.49234
300.49895
300.45716
300.53027
300.46955
300.50525
300.50243
300.48912
300.47868
300.48015
300.47474
300.47129
300.4274
300.44157
300.44147
300.44496
300.44471
300.44023
300.43484
300.43607
300.42341
300.41086
300.33703
300.50827
300.45103
300.44978
300.42861
300.42534
300.41965
300.41555
300.41939
300.42394
300.37833
300.37218
300.38007
300.37998
300.37793
300.37702
300.37975
300.37891
300.36131
300.39228
300.46758
300.27042
300.32378
300.40543
300.38249
300.39963
300.39223
300.37935
300.37011
300.37451
300.32929
300.31802
300.31281
300.3125
300.31076
300.31115
300.30898
300.30166
300.28298
300.29175
300.1747
300.46423
300.35863
300.32356
300.3276
300.31956
300.31076
300.31835
300.31674
300.3266
300.27707
300.25247
300.25191
300.25063
300.24862
300.25314
300.25063
300.24869
300.23258
300.19572
300.02194
300.53204
300.48939
300.09718
300.23867
300.22625
300.23073
300.25906
300.25547
300.25655
300.21007
300.17945
300.18973
300.18851
300.19335
300.19081
300.18942
300.18532
300.18013
300.16768
300.11915
300.21314
299.94101
300.58192
300.45182
300.06363
300.17189
300.1474
300.18305
300.1754
300.13924
300.13902
300.12723
300.12512
300.1242
300.12665
300.12519
300.12876
300.13061
300.12965
300.12081
300.1263
300.09944
300.15977
300.08484
300.24523
300.17469
300.16508
300.15738
300.15403
300.11139
300.06915
300.06927
300.07118
300.07148
300.07042
300.07041
300.07035
300.07053
300.06919
300.07041
300.0721
300.06765
300.07528
300.05212
300.12588
300.10715
300.1156
300.10722
300.10364
300.05526
300.01132
300.01246
300.01484
300.01172
300.01236
300.01432
300.01309
300.01457
300.02003
300.01907
300.02197
300.02758
300.03252
300.03092
300.05315
300.04179
300.06013
300.05189
300.05196
300.0002
299.95972
299.95854
299.95856
299.95864
299.95938
299.96097
299.962
299.96288
299.96417
299.97156
299.97641
299.97461
299.9761
299.97419
299.98664
299.97919
300.00042
299.99602
299.99306
299.94648
299.90853
299.91035
299.90906
299.90948
299.90704
299.90735
299.9084
299.91053
299.91471
299.91937
299.92555
299.93092
299.93344
299.93039
299.94196
299.94993
299.93795
299.94348
299.93968
299.89662
299.86095
299.86133
299.86331
299.86248
299.86653
299.86765
299.87135
299.87442
299.87289
299.87607
299.88224
299.89111
299.8907
299.89874
299.89156
299.89166
299.90272
299.90179
299.90434
299.86059
299.82305
299.82443
299.82465
299.82288
299.82616
299.82852
299.82905
299.83094
299.83541
299.8406
299.84589
299.8497
299.8527
299.85464
299.86167
299.86679
299.86852
299.86682
299.87189
299.82264
299.79118
299.79137
299.79206
299.79421
299.79274
299.79296
299.79521