/*--------------------------------*- C++ -*----------------------------------*\
| =========                 |                                                 |
| \\      /  F ield         | OpenFOAM: The Open Source CFD Toolbox           |
|  \\    /   O peration     | Version:  1.7.x                                 |
|   \\  /    A nd           | Web:      www.OpenFOAM.com                      |
|    \\/     M anipulation  |                                                 |
\*---------------------------------------------------------------------------*/
FoamFile
{
    version     2.0;
    format      ascii;
    class       volScalarField;
    location    "1.7";
    object      k;
}
// * * * * * * * * * * * * * * * * * * * * * * * * * * * * * * * * * * * * * //

dimensions      [0 2 -2 0 0 0 0];

internalField   nonuniform List<scalar> 
59760
(
0.00707476
0.00668503
0.0075792
0.00811077
0.00918608
0.0092322
0.00985957
0.0103572
0.0101179
0.0103126
0.00990127
0.00793496
0.00554218
0.00534473
0.00620145
0.0071282
0.00762591
0.00733802
0.00658356
0.00726903
0.00709619
0.00462786
0.00462445
0.00463003
0.00463456
0.00463708
0.00463837
0.00463822
0.00463682
0.00463366
0.00462813
0.00462034
0.00460991
0.00460334
0.00460233
0.00460224
0.00459925
0.00459191
0.0045846
0.00664699
0.00670898
0.00458729
0.00458403
0.00458962
0.00459446
0.00459712
0.00459889
0.00459949
0.0045983
0.00459538
0.00458953
0.00458073
0.00457053
0.00456378
0.00456248
0.00456265
0.00456013
0.00455351
0.00454721
0.00656077
0.00653849
0.00448976
0.00448455
0.00448817
0.00449107
0.00449303
0.00449403
0.00449412
0.00449302
0.00449064
0.00448634
0.00448079
0.00447541
0.00447094
0.00446832
0.00446689
0.00446414
0.00445922
0.00445649
0.00630775
0.00620875
0.00444525
0.00443951
0.00444231
0.00444465
0.00444629
0.00444711
0.00444714
0.00444607
0.004444
0.0044403
0.00443574
0.00443214
0.00442854
0.00442548
0.00442352
0.00442084
0.00441675
0.00441555
0.00617274
0.00602647
0.00433957
0.00433359
0.00433564
0.00433757
0.00433876
0.00433956
0.00433954
0.00433864
0.00433706
0.00433419
0.00433061
0.00432766
0.00432492
0.00432234
0.00432063
0.00431847
0.00431566
0.00431523
0.00586798
0.00567591
0.0042915
0.00428544
0.00428697
0.00428844
0.00428948
0.00429007
0.00429006
0.00428925
0.00428785
0.00428541
0.00428267
0.00428056
0.00427826
0.00427589
0.00427396
0.00427205
0.00426982
0.00427007
0.00570292
0.00548416
0.00417109
0.00416517
0.00416631
0.00416733
0.00416808
0.0041685
0.00416846
0.00416787
0.00416682
0.00416514
0.00416338
0.00416172
0.00416024
0.00415842
0.00415706
0.00415572
0.00415445
0.00415502
0.00536574
0.00511802
0.00411713
0.00411164
0.00411235
0.00411305
0.00411357
0.00411381
0.0041137
0.00411321
0.00411236
0.00411121
0.00411015
0.00410924
0.00410808
0.00410675
0.00410545
0.00410453
0.00410377
0.00410468
0.00518345
0.00491921
0.00398478
0.00398096
0.00398124
0.00398154
0.00398181
0.00398192
0.00398185
0.0039816
0.00398119
0.00398053
0.00397983
0.00397916
0.00397845
0.00397762
0.00397685
0.00397651
0.00397601
0.00397662
0.0048214
0.00454072
0.00392458
0.00392187
0.00392194
0.00392205
0.00392219
0.00392223
0.00392217
0.00392203
0.0039218
0.00392142
0.00392095
0.00392041
0.00391985
0.00391935
0.00391885
0.00391881
0.00391848
0.00391885
0.00462742
0.00433637
0.00376771
0.00376636
0.00376641
0.00376639
0.00376633
0.0037663
0.00376624
0.00376612
0.00376594
0.00376574
0.00376553
0.00376529
0.00376514
0.00376484
0.00376467
0.0037648
0.0037644
0.00376468
0.00424795
0.00394899
0.0036934
0.00369295
0.00369296
0.00369283
0.00369262
0.00369252
0.00369243
0.00369232
0.00369218
0.00369209
0.00369208
0.00369206
0.00369213
0.00369205
0.00369208
0.00369227
0.00369184
0.00369186
0.00404742
0.00374163
0.00349258
0.00349234
0.00349235
0.00349247
0.00349265
0.00349272
0.00349275
0.0034928
0.00349282
0.0034928
0.00349271
0.00349258
0.0034925
0.00349241
0.00349247
0.00349205
0.00349161
0.00349154
0.00365475
0.00334991
0.0033858
0.00338617
0.00338614
0.00338596
0.00338574
0.00338568
0.00338569
0.00338565
0.00338561
0.00338568
0.00338583
0.00338598
0.00338606
0.00338611
0.00338602
0.00338607
0.00338628
0.0033864
0.00345182
0.00737942
0.00371104
0.003721
0.00377191
0.00383976
0.00385863
0.00390246
0.00392935
0.0039141
0.00391323
0.00386734
0.00376474
0.00367727
0.00365408
0.00367444
0.00371814
0.00373015
0.00368558
0.00362526
0.00668552
0.00716814
0.00371015
0.0036925
0.00369094
0.0036729
0.0036786
0.00368721
0.00369172
0.00369038
0.00368533
0.00366989
0.00367981
0.00367047
0.00365259
0.00366571
0.00366929
0.00367271
0.00368546
0.00366009
0.00670048
0.0070297
0.00353968
0.00351912
0.00353372
0.00356669
0.0035777
0.00358403
0.00358804
0.00358768
0.00358316
0.00357117
0.00352809
0.00350694
0.00349429
0.00349982
0.00351026
0.00351311
0.00350392
0.00349494
0.00664374
0.00676825
0.00347089
0.00344275
0.00345319
0.00344769
0.00345263
0.00345624
0.00345833
0.00345788
0.00345477
0.00344777
0.0034478
0.00343697
0.00342763
0.00343026
0.00343598
0.00343664
0.00342971
0.00342942
0.00650503
0.00661392
0.00340097
0.00336703
0.00337216
0.00337995
0.00338318
0.00338559
0.00338725
0.00338688
0.00338507
0.00338093
0.00337054
0.00336483
0.00336078
0.00336076
0.00336304
0.00336333
0.0033601
0.00337301
0.00642165
0.00627587
0.00335983
0.00332444
0.00332692
0.00332894
0.00333051
0.00333161
0.00333232
0.00333215
0.0033312
0.00332937
0.00332657
0.00332377
0.00332161
0.00332138
0.00332217
0.00332196
0.00332053
0.00333808
0.00613667
0.00609506
0.00333304
0.00329929
0.00330029
0.00330113
0.00330188
0.00330244
0.00330284
0.00330272
0.00330229
0.0033016
0.00330046
0.00329964
0.00329887
0.00329852
0.00329859
0.0032983
0.00329791
0.00331748
0.00599533
0.00570481
0.00331419
0.0032855
0.00328565
0.00328588
0.00328614
0.00328641
0.00328667
0.00328664
0.00328661
0.00328654
0.00328629
0.00328608
0.00328591
0.00328582
0.00328578
0.00328556
0.00328559
0.00330463
0.00563467
0.00549769
0.00330417
0.00327887
0.00327889
0.00327901
0.00327921
0.00327945
0.00327969
0.00327967
0.00327969
0.00327969
0.00327957
0.00327942
0.00327928
0.00327932
0.00327925
0.00327903
0.00327895
0.00329638
0.00545148
0.00507304
0.00329391
0.00327348
0.00327352
0.00327363
0.00327383
0.00327406
0.00327429
0.00327427
0.00327427
0.00327426
0.00327417
0.00327411
0.00327398
0.00327393
0.00327379
0.00327356
0.00327336
0.00328838
0.00504388
0.00484806
0.00328399
0.00326891
0.003269
0.0032691
0.00326929
0.00326952
0.00326975
0.00326971
0.00326971
0.0032697
0.00326963
0.00326956
0.00326943
0.00326937
0.00326919
0.00326896
0.00326862
0.00328085
0.00483274
0.00439814
0.00327415
0.00326503
0.00326518
0.00326527
0.00326544
0.00326567
0.00326591
0.00326586
0.00326585
0.00326584
0.00326581
0.00326579
0.00326568
0.00326558
0.00326537
0.00326515
0.00326466
0.00327315
0.00438798
0.00416427
0.00326619
0.0032614
0.00326159
0.00326166
0.00326181
0.00326205
0.0032623
0.00326225
0.00326223
0.00326223
0.00326221
0.0032622
0.00326211
0.00326204
0.00326183
0.00326161
0.00326095
0.00326575
0.0041601
0.00370966
0.00325864
0.00325661
0.0032566
0.00325661
0.00325672
0.00325691
0.00325711
0.00325709
0.00325708
0.00325709
0.00325709
0.00325708
0.00325704
0.00325702
0.00325694
0.00325673
0.00325612
0.00325796
0.0037076
0.00347681
0.00325227
0.00325192
0.00325192
0.00325192
0.00325197
0.00325207
0.00325217
0.00325216
0.00325216
0.00325216
0.00325216
0.00325216
0.00325215
0.00325215
0.00325212
0.003252
0.00325167
0.00325189
0.00347585
0.00873774
0.00397982
0.00390282
0.00390792
0.00392071
0.00392888
0.00393537
0.00393798
0.00393501
0.00392845
0.0039139
0.00388939
0.00385301
0.00383301
0.00383811
0.00384836
0.00385134
0.00385534
0.00388261
0.00737327
0.00848015
0.00392626
0.00385282
0.00384923
0.00385786
0.00386521
0.00386931
0.00387049
0.00386812
0.00386048
0.00384744
0.00383231
0.00380846
0.00379201
0.00379309
0.003798
0.00379678
0.0038054
0.00381495
0.00735217
0.00830377
0.00379457
0.00372598
0.00372405
0.0037307
0.003736
0.00373873
0.00373923
0.00373695
0.00373107
0.00372204
0.00371038
0.00369522
0.0036847
0.00368287
0.00368501
0.0036833
0.0036872
0.00370016
0.00735807
0.00793012
0.00373095
0.00366647
0.00366325
0.00366669
0.00367073
0.00367256
0.00367253
0.00367034
0.00366511
0.00365788
0.0036511
0.00364001
0.00363206
0.00363025
0.00363071
0.00362819
0.00363162
0.00363862
0.00723164
0.007674
0.00359841
0.00354766
0.00354462
0.00354798
0.00355079
0.00355206
0.00355186
0.00355007
0.00354656
0.00354172
0.00353694
0.00353155
0.00352734
0.00352487
0.00352434
0.00352212
0.00352483
0.00353173
0.00716852
0.00717628
0.00353404
0.00348924
0.00348643
0.00348877
0.00349091
0.00349185
0.00349151
0.00348995
0.00348729
0.00348365
0.00348078
0.00347763
0.00347505
0.00347296
0.00347208
0.00347003
0.00347261
0.00347472
0.00683281
0.00689179
0.003431
0.00339284
0.00339197
0.00339366
0.00339505
0.00339571
0.00339554
0.00339472
0.00339343
0.00339146
0.00339007
0.00338867
0.00338771
0.00338664
0.00338601
0.00338489
0.00338635
0.00339677
0.00667326
0.00631922
0.0033857
0.0033493
0.00334942
0.0033508
0.00335187
0.00335241
0.00335231
0.00335182
0.00335106
0.00334983
0.00334912
0.00334838
0.00334787
0.00334725
0.00334679
0.00334609
0.00334706
0.00335924
0.00617166
0.00601514
0.00333382
0.0033001
0.00330078
0.00330174
0.00330254
0.00330288
0.00330297
0.00330286
0.00330251
0.00330192
0.00330151
0.00330112
0.00330081
0.00330031
0.00330014
0.00329985
0.00330002
0.00331542
0.00593749
0.0054313
0.00331159
0.00328141
0.00328177
0.00328248
0.00328308
0.00328332
0.00328343
0.00328347
0.00328332
0.00328302
0.00328269
0.0032824
0.00328213
0.00328182
0.00328178
0.00328176
0.00328207
0.00329787
0.00537838
0.00512442
0.0032899
0.00326931
0.00326951
0.00326995
0.00327037
0.00327046
0.00327054
0.00327057
0.00327053
0.00327045
0.00327023
0.00327015
0.00326986
0.00326936
0.00326929
0.00326938
0.0032693
0.0032807
0.00510876
0.00458045
0.00327765
0.00326391
0.00326411
0.00326449
0.00326486
0.00326493
0.00326501
0.00326506
0.00326505
0.00326502
0.00326481
0.00326474
0.00326447
0.00326399
0.00326399
0.00326414
0.00326396
0.00327302
0.00456759
0.00429519
0.00326746
0.00325903
0.00325924
0.00325961
0.00325997
0.00325998
0.00326
0.00326
0.00326001
0.00326005
0.00326008
0.00326007
0.00325974
0.00325906
0.00325901
0.00325913
0.00325932
0.00326492
0.0042943
0.0037719
0.00325709
0.00325588
0.00325616
0.00325654
0.0032569
0.00325693
0.00325697
0.00325698
0.00325697
0.00325693
0.00325678
0.00325673
0.00325649
0.00325595
0.00325598
0.00325609
0.00325551
0.0032583
0.00377255
0.00350285
0.00325172
0.00325112
0.0032512
0.00325133
0.00325157
0.00325157
0.00325157
0.00325157
0.00325159
0.00325163
0.00325175
0.00325177
0.00325147
0.00325115
0.00325113
0.00325116
0.00325113
0.00325158
0.00350413
0.00869237
0.00361905
0.00354627
0.00354613
0.00354518
0.00354797
0.00354757
0.00354768
0.00354964
0.00354745
0.00354523
0.00354564
0.00354409
0.00353781
0.00354038
0.00354585
0.00355114
0.0035598
0.0036496
0.00775534
0.00833381
0.0035492
0.00348292
0.00348482
0.00349538
0.00349961
0.00350654
0.00351136
0.00351068
0.00351087
0.00350403
0.00348642
0.00348016
0.00347775
0.00348111
0.00348696
0.00349144
0.00349709
0.00354503
0.00756604
0.00818634
0.00353967
0.00347404
0.00347118
0.00346482
0.00346463
0.00346158
0.00346061
0.00346339
0.00346316
0.00346498
0.0034752
0.00347394
0.00347374
0.00347631
0.00348095
0.00348628
0.00349309
0.00352859
0.00751
0.00783683
0.00348019
0.00341698
0.00341457
0.00341497
0.00341684
0.0034224
0.00342632
0.00342611
0.00342813
0.00342456
0.00342032
0.00342184
0.00342365
0.00342637
0.00343069
0.00343619
0.00344383
0.00347906
0.0073111
0.00765892
0.00346852
0.00340682
0.00340356
0.00340114
0.00339865
0.00339373
0.00339223
0.00339547
0.00339697
0.00340212
0.00340992
0.00341351
0.00341627
0.00341903
0.00342298
0.00342878
0.0034372
0.00347192
0.00721922
0.00725257
0.00342946
0.00337137
0.00336807
0.00336615
0.00336505
0.00336664
0.00336977
0.00336983
0.00337254
0.00337131
0.00337516
0.00337906
0.00338235
0.00338524
0.00338901
0.00339434
0.00340194
0.003435
0.00693351
0.00704307
0.00342174
0.00336588
0.00336232
0.00336008
0.00335875
0.00335641
0.00335513
0.00335857
0.00336077
0.00336513
0.00336974
0.00337384
0.00337719
0.00338006
0.00338361
0.0033886
0.00339578
0.00342758
0.00679322
0.00655207
0.00339278
0.0033439
0.00334238
0.00334112
0.00334017
0.00334239
0.00334475
0.00334523
0.00334727
0.00334541
0.00334707
0.00334995
0.00335253
0.00335506
0.00335793
0.00336106
0.00336458
0.00338794
0.00638936
0.00629091
0.00337729
0.00333212
0.00333042
0.00333033
0.00333107
0.00332938
0.00332923
0.00333206
0.00333242
0.00333561
0.00333991
0.00334161
0.00334319
0.00334449
0.00334597
0.00334751
0.00335254
0.00337534
0.00618573
0.00571365
0.00334973
0.0033159
0.00331667
0.00331632
0.00331599
0.00331967
0.00332099
0.00332132
0.00332194
0.00332001
0.00331671
0.00331773
0.00331886
0.00332022
0.00332147
0.00332263
0.0033198
0.00333584
0.00565468
0.00540507
0.00331357
0.00329043
0.00329028
0.00329058
0.00329119
0.00329208
0.00329321
0.00329429
0.0032946
0.00329475
0.00329596
0.00329632
0.00329652
0.00329648
0.00329677
0.00329688
0.00330538
0.00332057
0.0053873
0.00477672
0.00329641
0.00328094
0.00328095
0.00328135
0.00328201
0.0032829
0.00328406
0.00328505
0.00328528
0.00328539
0.00328298
0.00328319
0.00328382
0.00328458
0.00328484
0.00328542
0.00327959
0.00328843
0.00477204
0.00444083
0.00327108
0.00326329
0.00326345
0.00326373
0.00326415
0.00326468
0.0032653
0.00326574
0.00326581
0.00326585
0.00326561
0.00326558
0.00326568
0.00326575
0.00326575
0.00326593
0.0032697
0.0032768
0.00445977
0.00383717
0.00326375
0.00325863
0.00325891
0.00325913
0.00325937
0.00325959
0.00325974
0.00325968
0.00325971
0.00325973
0.00325916
0.00325908
0.00325913
0.00325914
0.00325908
0.00325923
0.00325714
0.00325949
0.00384778
0.00351136
0.00325169
0.00325118
0.00325127
0.00325135
0.00325146
0.00325157
0.00325169
0.00325173
0.00325174
0.00325174
0.00325174
0.0032517
0.0032517
0.00325169
0.00325167
0.00325173
0.00325241
0.00325298
0.00353336
0.0127224
0.00962493
0.00966921
0.00967885
0.00972014
0.00973647
0.00973415
0.00972326
0.00970179
0.00967111
0.00961935
0.00951389
0.00945338
0.00939821
0.00931846
0.0092795
0.00934268
0.00946058
0.00993932
0.0113623
0.0113923
0.00782983
0.00784568
0.00781312
0.00778848
0.00777106
0.00775526
0.0077379
0.00771867
0.00769339
0.00768489
0.00768387
0.00768271
0.00766306
0.00762371
0.00756819
0.00759024
0.00757815
0.00769335
0.0100336
0.0109857
0.0071876
0.0072112
0.00717435
0.00714376
0.00712349
0.00711135
0.00709809
0.0070824
0.00706114
0.00705965
0.00707804
0.00709715
0.0070862
0.00705973
0.00701312
0.00703982
0.00698445
0.00702592
0.00962574
0.0101107
0.00578914
0.00580151
0.00578487
0.00577488
0.00576838
0.00576481
0.00575927
0.00575042
0.00573707
0.00573119
0.00573396
0.00573969
0.00572543
0.00571678
0.00570125
0.0057086
0.00574334
0.00581552
0.00901953
0.00964458
0.00512359
0.0051161
0.00510566
0.0050998
0.00509671
0.00509625
0.00509516
0.0050916
0.0050855
0.00508474
0.00509228
0.00510097
0.0051056
0.00510328
0.00509839
0.00512021
0.00529562
0.00533518
0.00874582
0.00902901
0.0046913
0.00466817
0.00466109
0.00465514
0.00465112
0.00465106
0.00464985
0.00464794
0.00464325
0.00463738
0.00464123
0.0046389
0.00464235
0.0046393
0.00464011
0.00464489
0.00464003
0.00463464
0.00821099
0.00832456
0.00420329
0.00416625
0.00416118
0.00415921
0.00415844
0.00415855
0.00415982
0.00416159
0.00416422
0.00416796
0.00417728
0.00418575
0.00419341
0.00420147
0.00420954
0.00423359
0.00440398
0.00441688
0.00797229
0.00774722
0.00406787
0.00402486
0.00402115
0.00402011
0.00401992
0.00402053
0.00402179
0.00402414
0.0040271
0.00403012
0.00403728
0.00404365
0.00404983
0.00405538
0.00405978
0.00405944
0.00402075
0.00402733
0.00729818
0.00688889
0.00380563
0.00375935
0.0037547
0.00375236
0.00375114
0.00375101
0.00375212
0.00375455
0.00375797
0.00376206
0.00376925
0.00377551
0.00378109
0.00378805
0.00379699
0.00380729
0.00391374
0.00393609
0.00696552
0.00643653
0.00376209
0.00371723
0.00371324
0.00371104
0.00370982
0.00370952
0.00371047
0.00371264
0.00371575
0.00371924
0.00372498
0.0037302
0.00373448
0.0037399
0.00374716
0.00374878
0.00370503
0.00371725
0.00616491
0.00560053
0.00357621
0.00355194
0.00355057
0.00355032
0.00355065
0.00355127
0.00355243
0.00355409
0.00355615
0.00355798
0.00356203
0.00356578
0.00356848
0.00357116
0.00357442
0.00357551
0.00365552
0.00367317
0.00576491
0.00518305
0.00353129
0.00351349
0.00351299
0.0035138
0.00351493
0.00351605
0.00351735
0.00351884
0.0035204
0.00352161
0.00352502
0.00352801
0.00352988
0.00353108
0.00353134
0.00353095
0.00347001
0.00347256
0.00501174
0.00445379
0.00334851
0.00334355
0.00334376
0.00334421
0.00334493
0.00334586
0.00334698
0.00334824
0.00334966
0.00335059
0.00335278
0.0033549
0.00335628
0.00335752
0.00335878
0.00335892
0.00341067
0.00341699
0.00461951
0.00407224
0.00329605
0.00329396
0.0032942
0.00329458
0.00329518
0.00329591
0.00329675
0.00329763
0.00329851
0.00329879
0.00329981
0.00330118
0.00330233
0.00330312
0.00330349
0.00330402
0.00328976
0.00329047
0.00392827
0.00341355
0.00325406
0.00325366
0.0032537
0.00325382
0.00325401
0.00325422
0.00325444
0.00325466
0.00325487
0.00325503
0.00325571
0.00325624
0.00325672
0.0032568
0.00325678
0.00325677
0.00325725
0.00325684
0.00356376
0.0175999
0.0154299
0.0153973
0.0153821
0.0153729
0.015366
0.0153653
0.0153669
0.0153703
0.0153676
0.0153807
0.0154037
0.0154147
0.0154307
0.0154535
0.0155011
0.015557
0.0155869
0.0156524
0.0162776
0.0152947
0.0134521
0.0134197
0.013402
0.0133897
0.0133805
0.0133768
0.0133755
0.0133762
0.0133731
0.0133849
0.0134043
0.0134159
0.0134229
0.0134358
0.0134686
0.0135087
0.0135543
0.0136135
0.014444
0.0143154
0.0125737
0.0125411
0.0125225
0.0125091
0.012499
0.0124941
0.0124914
0.0124908
0.0124875
0.0124985
0.0125161
0.0125264
0.0125315
0.0125393
0.0125641
0.0126011
0.0126498
0.0127081
0.0135115
0.0128895
0.011375
0.0113429
0.0113225
0.0113074
0.0112961
0.0112899
0.0112861
0.0112849
0.0112832
0.0112952
0.0113122
0.0113247
0.0113272
0.0113336
0.0113554
0.0113901
0.0114523
0.0115105
0.0122099
0.0120629
0.010608
0.0105753
0.0105545
0.0105386
0.0105267
0.0105198
0.0105153
0.0105136
0.0105125
0.0105245
0.0105408
0.010553
0.0105562
0.0105603
0.0105775
0.0106133
0.0106761
0.0107349
0.0114339
0.0107811
0.00963867
0.00961358
0.00960009
0.00958973
0.00958216
0.00957762
0.00957269
0.00956862
0.00956426
0.00956928
0.00957383
0.00957452
0.00956443
0.00956211
0.00956967
0.00958152
0.00961846
0.00966309
0.01026
0.0100414
0.00897378
0.00895122
0.00894047
0.00893225
0.00892463
0.00891981
0.00891565
0.00891289
0.00890843
0.00891132
0.00891256
0.00891065
0.00889729
0.00889412
0.00889831
0.00890216
0.00893199
0.00895502
0.00957549
0.00878802
0.00816472
0.0081566
0.00815793
0.0081581
0.00815814
0.00815562
0.00814999
0.00814201
0.00813234
0.00812386
0.00810613
0.00808886
0.00806064
0.00804944
0.00803815
0.00802031
0.00800473
0.00799868
0.00846151
0.00808683
0.00742531
0.00741194
0.00740773
0.00740519
0.00740166
0.00740105
0.00739857
0.00739762
0.00739329
0.00739478
0.00739547
0.00739093
0.0073795
0.00738383
0.00738338
0.00737896
0.00739098
0.00739008
0.0078348
0.00689793
0.00663502
0.0066413
0.00665178
0.00665873
0.00666478
0.00666351
0.00665812
0.00664921
0.00663793
0.00662165
0.00658961
0.00656537
0.00653707
0.00652171
0.00649719
0.00647461
0.00644682
0.00643296
0.00675836
0.00625827
0.00577585
0.00576191
0.00575522
0.00575151
0.00574684
0.00574804
0.00574895
0.0057525
0.00575453
0.00576269
0.00578043
0.00578559
0.0057933
0.00581263
0.00582285
0.00583062
0.00584923
0.00584936
0.00617652
0.00527561
0.00510822
0.00512187
0.00513401
0.00514126
0.00514944
0.00514688
0.0051421
0.00513329
0.00511909
0.0050988
0.00506512
0.00504573
0.00503474
0.00501282
0.00500402
0.00500111
0.004999
0.00499689
0.00524359
0.00476332
0.00439639
0.00439168
0.00439196
0.00439213
0.0043922
0.00439202
0.00439167
0.00439112
0.00439032
0.00439373
0.00443108
0.00445839
0.00447388
0.00449157
0.00450277
0.00450212
0.0045005
0.00450044
0.0047523
0.00400693
0.00394754
0.0039507
0.00395061
0.00395053
0.00395043
0.00395042
0.00395045
0.00395048
0.00395062
0.00394242
0.0039036
0.00387835
0.00385315
0.00385363
0.00385342
0.00385312
0.00385301
0.00385289
0.00400582
0.0035953
0.00339358
0.00339341
0.00339342
0.00339342
0.00339342
0.00339341
0.0033934
0.00339338
0.00339335
0.00339322
0.00343038
0.00345768
0.00348565
0.00348645
0.00348646
0.00348661
0.00348655
0.00348671
0.00359456
22.0827
21.6794
21.2509
20.855
20.5082
20.2252
20.0204
19.9255
19.9348
20.0483
20.2522
20.5207
20.8388
21.1857
21.5463
21.9147
15.6797
15.6689
15.6232
15.58
15.5374
15.4998
15.473
15.4625
15.4697
15.4943
15.5332
15.5809
15.6313
15.6764
15.7038
15.7068
14.4982
14.48
14.4464
14.4155
14.3858
14.3596
14.3413
14.3354
14.3444
14.3679
14.4038
14.4485
14.4976
14.546
14.5855
14.6043
15.3444
15.4307
15.5011
15.5637
15.6146
15.6554
15.6883
15.7153
15.7376
15.7557
15.7698
15.7783
15.7796
15.7703
15.7478
15.7157
17.5313
17.6497
17.7538
17.8461
17.9237
17.9882
18.0415
18.0854
18.1209
18.1486
18.1689
18.1817
18.1855
18.1781
18.1565
18.1286
19.7881
19.95
20.0952
20.2229
20.3312
20.4216
20.496
20.556
20.6026
20.6361
20.6566
20.6647
20.6594
20.6387
20.5982
20.5427
22.3886
22.5516
22.701
22.8321
22.9442
23.0387
23.1173
23.1811
23.231
23.2671
23.2891
23.2974
23.291
23.2671
23.2211
23.1547
25.0631
25.2172
25.3585
25.4827
25.5892
25.6792
25.7536
25.8134
25.8591
25.8906
25.9075
25.9104
25.8969
25.865
25.81
25.7301
27.7718
27.8985
28.0149
28.1193
28.2097
28.2864
28.3498
28.4002
28.4378
28.462
28.4725
28.4692
28.4495
28.4113
28.3505
28.2656
30.3818
30.4629
30.5379
30.6107
30.6762
30.7336
30.7823
30.8223
30.8529
30.8731
30.8819
30.8778
30.8586
30.8215
30.7624
30.6835
32.6305
32.6363
32.649
32.673
32.7004
32.7295
32.7592
32.789
32.8174
32.8424
32.8614
32.8717
32.8708
32.8536
32.8163
32.767
34.1555
34.0289
33.9175
33.8444
33.8015
33.7847
33.7878
33.8081
33.8427
33.8881
33.942
34.001
34.0605
34.1145
34.1528
34.1719
34.8715
34.5838
34.3506
34.2014
34.1091
34.0625
34.0508
34.0661
34.1061
34.1666
34.2447
34.338
34.4439
34.5578
34.6745
34.7901
35.086
34.6557
34.3077
34.0734
33.9221
33.8363
33.8039
33.8121
33.859
33.9399
34.0518
34.1917
34.3556
34.5359
34.7266
34.9404
35.1025
34.485
34.0175
33.6995
33.4848
33.3545
33.2966
33.2935
33.3424
33.4393
33.5812
33.7654
33.9884
34.2435
34.5201
34.8459
21.8704
21.4801
21.0608
20.6601
20.2992
19.9866
19.7617
19.6529
19.6584
19.7778
19.9978
20.283
20.6084
20.9643
21.3293
21.6762
15.6532
15.6576
15.62
15.5702
15.5185
15.472
15.437
15.4185
15.4173
15.4336
15.4643
15.504
15.5463
15.5813
15.5963
15.5722
14.4636
14.4667
14.4394
14.403
14.3654
14.3317
14.3065
14.2941
14.2953
14.3106
14.338
14.3739
14.4133
14.4487
14.4685
14.4519
15.3379
15.4469
15.5251
15.5856
15.6322
15.6678
15.695
15.7154
15.7303
15.7399
15.7437
15.7405
15.7275
15.7004
15.6521
15.5649
17.5391
17.6791
17.7885
17.8783
17.9519
18.0118
18.0602
18.0984
18.1276
18.1482
18.1598
18.1622
18.1531
18.1287
18.0809
17.991
19.8236
20.006
20.1552
20.2803
20.3848
20.4709
20.5405
20.5952
20.6358
20.6624
20.6748
20.6733
20.6559
20.6176
20.5497
20.4319
22.4393
22.6246
22.7776
22.9068
23.0158
23.1068
23.1816
23.2411
23.286
23.3163
23.3311
23.3304
23.3115
23.2702
23.1972
23.071
25.1265
25.3047
25.4506
25.5737
25.6776
25.7643
25.8353
25.8911
25.9321
25.9578
25.9676
25.9611
25.9352
25.8853
25.8022
25.664
27.8423
27.9955
28.1183
28.2217
28.3091
28.382
28.4411
28.4867
28.5186
28.5358
28.5382
28.5241
28.4907
28.4336
28.3439
28.2006
30.4575
30.5676
30.6514
30.722
30.7825
30.8338
30.8758
30.9082
30.9303
30.9407
30.9386
30.9215
30.8867
30.8295
30.7423
30.6039
32.7037
32.745
32.7681
32.7873
32.8064
32.8259
32.8453
32.8637
32.8798
32.8913
32.896
32.8912
32.873
32.8362
32.7723
32.6609
34.2077
34.1155
34.0172
33.9397
33.8883
33.8604
33.8515
33.8574
33.8758
33.9038
33.9388
33.9781
34.0175
34.0501
34.0649
34.0353
34.8761
34.6329
34.4261
34.2782
34.18
34.1226
34.098
34.0981
34.12
34.1604
34.2169
34.287
34.3676
34.4545
34.5433
34.6126
35.0386
34.6714
34.359
34.1275
33.9686
33.8702
33.8225
33.8145
33.8419
33.9021
33.9916
34.1077
34.2464
34.4021
34.5679
34.7244
34.9804
34.4582
34.0341
33.7188
33.4978
33.3557
33.281
33.2613
33.2912
33.3675
33.4866
33.6463
33.8437
34.0741
34.3302
34.5941
21.7542
21.3588
20.9434
20.5411
20.1712
19.8483
19.6168
19.5029
19.5103
19.6366
19.8691
20.1743
20.5083
20.8735
21.2435
21.5874
15.624
15.6337
15.6047
15.5563
15.5027
15.4533
15.415
15.3928
15.3888
15.4025
15.4312
15.4698
15.5117
15.5467
15.5613
15.5369
14.4323
14.4447
14.4251
14.3899
14.35
14.313
14.2843
14.2681
14.2659
14.2777
14.3018
14.3346
14.371
14.4029
14.4187
14.402
15.3214
15.4431
15.5283
15.59
15.635
15.6679
15.6915
15.7078
15.718
15.7227
15.7213
15.7124
15.6932
15.6593
15.6033
15.5121
17.5351
17.6876
17.8028
17.8928
17.9642
18.0209
18.0655
18.0995
18.124
18.1394
18.1454
18.1415
18.1252
18.0927
18.0365
17.9432
19.8423
20.0378
20.192
20.3167
20.4183
20.5006
20.566
20.6158
20.6511
20.672
20.6787
20.6707
20.6453
20.5983
20.5218
20.4014
22.4774
22.6762
22.8337
22.9622
23.0684
23.1557
23.2261
23.2809
23.3205
23.3447
23.3532
23.3453
23.3186
23.2689
23.1873
23.0576
25.1804
25.3722
25.523
25.6457
25.747
25.8301
25.8968
25.9479
25.9836
26.0036
26.0073
25.9935
25.9594
25.9002
25.8073
25.6654
27.9056
28.0725
28.2012
28.3047
28.3896
28.4587
28.5135
28.5542
28.5806
28.5921
28.5882
28.5671
28.5261
28.4607
28.3623
28.2154
30.5261
30.6502
30.7412
30.8123
30.8699
30.9166
30.9533
30.9799
30.9957
30.9998
30.9911
30.9676
30.9263
30.8624
30.7674
30.6247
32.773
32.8298
32.8613
32.8809
32.896
32.9096
32.9222
32.9332
32.9417
32.9459
32.944
32.9332
32.9099
32.8681
32.7977
32.6806
34.2661
34.1899
34.1026
34.027
33.9716
33.9366
33.9195
33.9169
33.9265
33.9459
33.9728
34.0049
34.0385
34.0673
34.0789
34.0475
34.9084
34.6855
34.4984
34.3566
34.2566
34.1926
34.1591
34.1503
34.1628
34.1938
34.2412
34.3031
34.377
34.4593
34.5434
34.6111
35.0519
34.7061
34.4156
34.1915
34.0309
33.9258
33.8684
33.8511
33.869
33.9191
33.999
34.1067
34.2397
34.393
34.5569
34.7097
34.9681
34.472
34.0715
33.7632
33.5401
33.3912
33.3074
33.2786
33.2987
33.3648
33.4746
33.6264
33.818
34.0453
34.3
34.5614
21.7452
21.3507
20.9402
20.5418
20.1757
19.8568
19.6276
19.5125
19.5186
19.6411
19.8698
20.1757
20.515
20.8788
21.2458
21.5831
15.6138
15.6301
15.6064
15.5614
15.509
15.4593
15.4195
15.3948
15.3875
15.3977
15.4232
15.4594
15.4993
15.5334
15.5485
15.5255
14.4209
14.4416
14.4268
14.3933
14.3533
14.3149
14.284
14.2646
14.259
14.2673
14.2879
14.3175
14.351
14.3815
14.3986
14.386
15.3055
15.4374
15.5272
15.5895
15.6331
15.6632
15.6832
15.6952
15.7009
15.7009
15.695
15.682
15.6596
15.6246
15.5707
15.4865
17.5294
17.6919
17.8101
17.8995
17.9681
18.021
18.0614
18.0908
18.1105
18.1212
18.1229
18.1153
18.0963
18.0632
18.0101
17.925
19.8532
20.0588
20.2159
20.3391
20.4369
20.5142
20.5743
20.6189
20.649
20.6651
20.6674
20.6558
20.6279
20.5807
20.5078
20.3962
22.5076
22.7168
22.8768
23.0032
23.1048
23.1868
23.2516
23.3008
23.335
23.3542
23.3586
23.3475
23.3189
23.2691
23.1912
23.0719
25.2291
25.4303
25.5832
25.7034
25.7999
25.8775
25.9384
25.9838
26.0139
26.0287
26.0277
26.0103
25.9743
25.9164
25.8299
25.6993
27.9692
28.1448
28.2752
28.3762
28.4563
28.5198
28.5685
28.6032
28.6238
28.6303
28.6218
28.5972
28.5546
28.4909
28.3985
28.2642
30.604
30.7371
30.8297
30.8983
30.9507
30.9909
31.0204
31.0398
31.0487
31.0467
31.0327
31.0051
30.9621
30.8998
30.8108
30.6817
32.8673
32.9338
32.9667
32.9833
32.9922
32.9978
33.0015
33.0036
33.0033
32.9997
32.9909
32.9751
32.9494
32.9088
32.844
32.7414
34.3731
34.3085
34.2239
34.1457
34.0833
34.0386
34.0105
33.9969
33.9958
34.0052
34.0238
34.0498
34.0806
34.111
34.1294
34.1144
35.0142
34.8053
34.625
34.4823
34.3755
34.3013
34.2557
34.2348
34.2356
34.2557
34.2939
34.349
34.4202
34.5057
34.5992
34.6864
35.154
34.8225
34.5428
34.3207
34.154
34.0383
33.968
33.9377
33.9434
33.9817
34.0517
34.1522
34.2823
34.4394
34.6143
34.7881
35.0681
34.5842
34.1939
33.8875
33.6586
33.4998
33.4032
33.3619
33.3703
33.4245
33.5242
33.6685
33.857
34.0879
34.354
34.6372
21.8253
21.4348
21.035
20.6505
20.3053
20.0054
19.7877
19.6769
19.6815
19.7953
20.0098
20.2949
20.6274
20.9875
21.3508
21.6739
15.6258
15.645
15.6255
15.585
15.5357
15.4877
15.448
15.4216
15.4111
15.4168
15.4366
15.4669
15.5015
15.5331
15.5507
15.5272
14.4406
14.463
14.4477
14.4144
14.3743
14.3353
14.3031
14.2815
14.2727
14.2767
14.2918
14.316
14.3451
14.3736
14.3937
14.3851
15.3164
15.4473
15.5315
15.5889
15.6278
15.6537
15.6695
15.6773
15.6786
15.6743
15.6641
15.6471
15.622
15.5868
15.5385
15.4633
17.5504
17.7124
17.8237
17.9053
17.967
18.0139
18.0483
18.0724
18.0872
18.0936
18.0919
18.0816
18.061
18.0288
17.9821
17.9089
19.889
20.0947
20.2426
20.3556
20.4439
20.5131
20.5663
20.6049
20.6296
20.6414
20.6404
20.6268
20.598
20.5526
20.4872
20.3897
22.5655
22.773
22.9222
23.037
23.1282
23.2011
23.2582
23.301
23.3298
23.345
23.3463
23.3338
23.305
23.2579
23.1887
23.0857
25.3043
25.5027
25.6443
25.7527
25.8385
25.9068
25.9598
25.9985
26.0232
26.0337
26.03
26.0114
25.9755
25.9208
25.843
25.7317
28.0598
28.2301
28.3493
28.4394
28.5096
28.5642
28.605
28.6328
28.6476
28.6491
28.6373
28.6106
28.568
28.508
28.4273
28.3137
30.7124
30.8382
30.9209
30.9801
31.0232
31.0542
31.0752
31.0867
31.0887
31.081
31.0621
31.031
30.9869
30.9286
30.8531
30.7461
32.9999
33.0583
33.0828
33.0912
33.091
33.0869
33.0807
33.0731
33.064
33.0528
33.0378
33.0172
32.9887
32.9504
32.8991
32.8186
34.5384
34.4674
34.3765
34.2908
34.2181
34.1614
34.1209
34.0953
34.0832
34.0832
34.094
34.1154
34.145
34.1797
34.2111
34.2169
35.207
34.9886
34.7996
34.6484
34.5301
34.4428
34.3836
34.3496
34.3387
34.3485
34.3782
34.4282
34.4999
34.5952
34.71
34.8224
35.367
35.0247
34.7383
34.5102
34.3321
34.2024
34.1172
34.0729
34.066
34.093
34.154
34.2492
34.3794
34.5462
34.745
34.9475
35.3083
34.8138
34.416
34.0993
33.8564
33.6817
33.569
33.5126
33.508
33.5504
33.6413
33.7808
33.9698
34.2104
34.5017
34.8173
22.0514
21.6469
21.2563
20.8846
20.5521
20.2738
20.068
19.9583
19.9536
20.048
20.2327
20.4923
20.8061
21.1564
21.5223
21.8466
15.7329
15.7276
15.6999
15.6534