/*--------------------------------*- C++ -*----------------------------------*\
| =========                 |                                                 |
| \\      /  F ield         | OpenFOAM: The Open Source CFD Toolbox           |
|  \\    /   O peration     | Version:  1.7.x                                 |
|   \\  /    A nd           | Web:      www.OpenFOAM.com                      |
|    \\/     M anipulation  |                                                 |
\*---------------------------------------------------------------------------*/
FoamFile
{
    version     2.0;
    format      ascii;
    class       volScalarField;
    location    "1.7";
    object      omega;
}
// * * * * * * * * * * * * * * * * * * * * * * * * * * * * * * * * * * * * * //

dimensions      [0 0 -1 0 0 0 0];

internalField   nonuniform List<scalar> 
59760
(
239.028
75.0758
78.6754
80.7374
84.7654
84.9388
87.2041
88.9017
88.049
88.7453
87.2186
79.8028
70.0746
69.3809
73.1685
76.9845
78.9033
77.7405
74.6674
240.306
239.165
83.9222
83.9036
83.9322
83.955
83.968
83.9744
83.9736
83.9666
83.9503
83.9217
83.8823
83.83
83.7974
83.7929
83.7923
83.7767
83.7388
83.7024
236.352
236.708
86.4447
86.4267
86.4558
86.4808
86.4948
86.5039
86.5071
86.5009
86.4857
86.4551
86.4095
86.3573
86.3232
86.3173
86.3183
86.3052
86.2703
86.2387
235.797
235.62
87.8496
87.8209
87.8398
87.8549
87.8653
87.8706
87.8711
87.8654
87.853
87.8303
87.8016
87.7744
87.7515
87.7381
87.7308
87.7163
87.6901
87.6773
234.166
233.499
89.6624
89.6306
89.6454
89.6578
89.6666
89.671
89.6713
89.6656
89.6548
89.6353
89.6114
89.5931
89.5746
89.5585
89.5485
89.5343
89.5124
89.5074
233.293
232.32
91.448
91.4146
91.4256
91.436
91.4425
91.4469
91.4469
91.4422
91.4338
91.4185
91.3995
91.3844
91.37
91.3566
91.3477
91.336
91.3209
91.3199
231.31
230.032
93.9182
93.8839
93.8924
93.9005
93.9062
93.9096
93.9096
93.9054
93.8979
93.8847
93.8703
93.8589
93.8471
93.8343
93.8244
93.8137
93.8019
93.8041
230.229
228.771
96.4295
96.3963
96.4021
96.4081
96.4123
96.4148
96.4147
96.4117
96.4061
96.397
96.3871
96.3795
96.3704
96.3617
96.3537
96.347
96.3398
96.344
228.006
226.342
99.8689
99.8371
99.8412
99.8453
99.8483
99.8499
99.8494
99.8469
99.8423
99.8362
99.8306
99.8257
99.8198
99.8125
99.8057
99.8003
99.7967
99.8024
226.795
225.014
103.541
103.518
103.52
103.522
103.523
103.524
103.524
103.523
103.521
103.517
103.514
103.51
103.507
103.502
103.498
103.496
103.494
103.498
224.371
222.46
108.508
108.491
108.492
108.493
108.494
108.494
108.494
108.493
108.492
108.491
108.488
108.485
108.483
108.48
108.477
108.477
108.476
108.479
223.061
221.068
114.014
114.006
114.006
114.006
114.006
114.006
114.006
114.006
114.005
114.004
114.003
114.002
114.002
114
114
114.001
113.999
114.001
220.476
218.404
121.505
121.502
121.502
121.502
121.501
121.5
121.5
121.5
121.499
121.499
121.499
121.5
121.501
121.501
121.501
121.503
121.5
121.501
219.095
216.963
130.19
130.189
130.189
130.19
130.191
130.192
130.193
130.193
130.194
130.194
130.194
130.194
130.193
130.193
130.194
130.192
130.189
130.189
216.368
214.216
142.245
142.248
142.248
142.247
142.246
142.246
142.246
142.246
142.246
142.247
142.249
142.25
142.251
142.252
142.252
142.253
142.254
142.255
214.943
240.918
118.493
125.994
132.127
141.874
143.088
147.77
149.906
148.038
148.725
145.606
131.659
109.361
103.393
114.335
127.884
136.338
137.635
157.407
236.602
239.582
86.7678
89.6882
93.3976
98.9158
100.44
103.134
104.193
103.735
103.494
100.799
92.6777
82.5162
79.299
84.1259
90.5337
94.4085
95.5933
100.137
236.684
238.699
60.6055
67.2751
69.9087
73.1977
74.4964
76.0222
77.4717
78.3228
78.8674
76.7549
71.4444
62.1858
58.5391
62.0204
67.5255
71.0099
72.2618
69.372
236.296
237.034
46.3995
50.551
53.3622
56.0966
57.6243
58.9661
59.4611
59.4888
58.7381
56.9892
53.3883
50.0014
47.0908
48.5371
50.7382
52.0957
52.0742
44.2851
235.398
236.044
31.0868
32.1565
33.7686
35.1965
36.1223
36.8306
37.3165
37.4675
37.194
36.1873
34.1315
31.9102
30.2543
30.7438
32.0696
32.8108
32.5909
30.1945
234.846
233.87
23.2392
22.2128
23.2874
24.2154
24.9065
25.3871
25.6853
25.6974
25.3779
24.6211
23.4705
22.6697
21.4885
21.1464
21.7341
22.0366
21.9007
21.0406
233.002
232.703
16.4639
13.4128
13.8045
14.1378
14.4243
14.5997
14.702
14.6911
14.5396
14.3589
14.0471
13.3392
12.9744
13.1024
13.3193
13.4124
13.5152
15.3018
232.082
230.163
12.3816
8.61769
8.76028
8.87037
8.9984
9.06874
9.11008
9.12124
9.04332
8.94804
8.80576
8.76877
8.75903
8.63966
8.69778
8.77282
8.97185
11.6458
229.725
228.806
10.2625
6.28413
6.27299
6.29629
6.3044
6.31906
6.32463
6.33602
6.37124
6.38528
6.36447
6.27873
6.25932
6.38287
6.48764
6.56272
6.7012
9.54134
228.518
225.988
8.65248
4.71815
4.67596
4.67298
4.67686
4.67956
4.68456
4.69667
4.71366
4.72959
4.72856
4.7427
4.75511
4.79112
4.83916
4.89296
5.00622
7.86753
225.811
224.484
7.46724
3.7132
3.67772
3.67754
3.67996
3.68106
3.68124
3.68759
3.69998
3.70528
3.67871
3.6426
3.63509
3.68874
3.73679
3.77855
3.85907
6.6522
224.396
221.442
6.3664
3.15419
3.12918
3.12963
3.129
3.12697
3.12344
3.12127
3.1236
3.12444
3.12088
3.12724
3.13043
3.13418
3.1489
3.16895
3.21481
5.62214
221.386
219.85
5.54999
3.01392
2.99522
2.99407
2.99003
2.98363
2.97529
2.96794
2.96582
2.9637
2.95925
2.9569
2.95982
2.97138
2.98247
2.99195
3.02475
5.07166
219.833
216.715
4.55662
2.87584
2.86494
2.86284
2.85858
2.85236
2.84341
2.83629
2.83511
2.83471
2.83203
2.83132
2.83237
2.84038
2.85154
2.85807
2.89026
4.50141
216.712
215.098
3.6471
2.7769
2.77234
2.77108
2.7669
2.76002
2.74929
2.74005
2.73778
2.73543
2.73394
2.73243
2.73448
2.7449
2.75873
2.76671
2.80725
3.80537
215.101
249.468
198.094
186.471
188.88
193.605
195.157
197.374
198.599
198.387
198.204
195.563
187.539
179.754
171.68
171.174
176.304
182.089
191.31
242.459
241.138
247.888
188.591
178.776
180.451
184.414
185.897
187.653
188.646
188.572
188.18
185.617
178.654
161.576
155.343
162.376
169.613
174.325
183.158
201.127
240.984
246.787
168.163
155.362
155.513
157.917
159.217
160.293
160.922
160.865
160.12
158.165
153.835
148.413
144.575
143.641
146.823
149.533
156.267
181.536
240.994
244.477
159.772
146.168
145.699
147.373
148.559
149.269
149.619
149.456
148.445
146.804
143.736
137.362
133.792
135.368
137.608
139.329
144.866
147.995
240.177
242.87
127.905
117.695
116.301
117.313
118.149
118.585
118.72
118.432
117.475
116.129
114.142
111.427
109.403
109.076
110.13
110.921
114.594
127.874
239.752
239.74
112.571
104.57
102.729
103.448
104.131
104.421
104.432
104.018
103.062
101.901
100.566
98.4954
96.8784
96.6151
97.2441
97.5269
100.821
96.1721
237.605
237.923
71.2772
69.8582
68.1014
68.4458
68.8155
68.9886
68.9206
68.5879
68.0574
67.2904
66.5593
66.0271
65.7501
65.4455
65.546
65.6762
67.9243
65.5271
236.564
234.247
53.5294
54.6262
53.1504
53.424
53.6342
53.7819
53.6761
53.3971
53.0909
52.5879
52.2168
51.8628
51.7655
51.8829
51.9366
51.9687
53.8289
49.8173
233.321
232.267
25.7039
25.1709
25.5905
25.9033
26.1515
26.2864
26.2948
26.1758
25.9891
25.7486
25.6987
25.6495
25.682
25.5645
25.5074
25.345
25.3281
24.3905
231.785
228.433
16.6651
14.3181
14.6169
14.8943
15.1101
15.238
15.2794
15.2379
15.1213
14.9192
14.8418
14.6392
14.691
14.7984
14.8715
14.758
15.062
16.643
228.105
226.394
9.2559
6.11122
6.15501
6.22067
6.26158
6.2841
6.27632
6.25475
6.21044
6.17541
6.15092
6.14508
6.12583
6.09706
6.03602
6.00373
5.99311
7.95238
226.306
222.734
6.42081
3.63413
3.65447
3.68137
3.70089
3.71242
3.71462
3.70895
3.68439
3.64776
3.60242
3.56792
3.56207
3.58129
3.58931
3.58575
3.61424
5.61726
222.662
220.788
5.08975
2.7938
2.78756
2.79155
2.79507
2.79721
2.7984
2.79945
2.80044
2.80138
2.79457
2.79003
2.78628
2.78201
2.77898
2.77872
2.79485
4.46763
220.795
217.175
3.89745
2.64235
2.63886
2.63992
2.64103
2.64234
2.64362
2.64473
2.6456
2.64636
2.6393
2.63749
2.63734
2.63707
2.63564
2.63528
2.64505
3.89668
217.19
215.289
3.28151
2.60429
2.60339
2.60382
2.60435
2.60485
2.60544
2.6059
2.60682
2.60753
2.6079
2.6063
2.60387
2.603
2.60318
2.60337
2.60686
3.04449
215.308
249.243
107.665
104.761
108.882
112.949
114.818
116.883
117.912
117.292
116.265
113.436
105.565
95.0069
87.0855
90.0701
93.8509
94.6445
92.1266
107.304
243.543
247.042
73.9462
70.1623
71.3955
73.2289
74.2055
75.1239
75.6266
75.4381
74.9031
73.3418
69.3861
64.6254
61.2757
62.5904
64.2751
64.3376
66.0493
70.5545
242.348
246.128
66.3155
61.5139
62.0534
63.0614
63.7303
64.2626
64.6158
64.6598
64.3612
63.3744
61.0402
58.0684
56.248
56.8128
57.7704
58.8091
61.3664
63.2855
241.983
243.941
48.8841
44.1596
44.3448
44.9436
45.3222
45.6154
45.7857
45.7906
45.576
44.8701
43.5199
41.7595
41.1019
41.0702
41.7071
42.952
45.4168
48.4321
240.719
242.841
39.7792
34.0996
33.4082
33.1832
33.1422
33.1666
33.3479
33.6304
33.984
34.3199
34.7354
35.1706
35.1777
35.7647
36.8239
38.2948
41.2852
45.1385
240.121
240.271
27.8265
22.9818
22.7071
22.5635
22.3959
22.343
22.3911
22.4704
22.728
22.7297
22.726
23.1893
23.8481
24.383
25.2732
27.0675
29.7264
33.9752
238.296
238.932
24.3654
17.9203
16.4295
15.542
15.0729
14.8244
14.8122
15.0826
15.6799
16.9147
18.8933
20.1474
21.049
21.7134
22.7185
24.5914
27.1738
31.5291
237.383
235.792
19.337
14.6148
14.4591
14.0252
13.5078
13.2257
13.205
13.4797
14.1195
14.338
14.22
14.9208
15.6481
16.4238
17.4477
18.7161
20.901
22.8225
234.778
234.095
17.8261
11.56
10.7421
10.4663
10.2664
10.1815
10.2195
10.3967
10.7217
11.1933
12.9842
13.7265
14.3207
14.7637
15.3485
16.2777
16.8766
20.2356
233.442
230.325
13.8572
9.47093
9.73567
9.63665
9.56942
9.56233
9.62113
9.7506
9.95245
9.98434
9.26418
9.595
9.92734
10.2672
10.6891
11.0682
11.7561
13.9809
229.959
228.276
12.1386
6.78903
6.70971
6.67105
6.6496
6.65277
6.68412
6.74367
6.83282
6.92909
7.8698
8.11204
8.31686
8.50906
8.75328
8.92268
8.97208
11.8331
228.177
224.067
8.89248
5.74518
5.73359
5.74699
5.7622
5.78061
5.80241
5.82657
5.85346
5.87919
5.21945
5.27443
5.33476
5.3952
5.47408
5.52446
5.72204
7.63718
224.052
221.784
6.88146
3.87933
3.87523
3.87549
3.87661
3.87946
3.88401
3.89103
3.90124
3.91267
4.19631
4.21516
4.22373
4.23168
4.27365
4.28927
4.44375
6.30572
221.926
217.631
4.96328
3.34239
3.33828
3.33996
3.34119
3.34209
3.34237
3.34352
3.34533
3.34783
3.0694
3.07181
3.07519
3.07482
3.08549
3.08589
3.18633
4.19738
217.715
215.354
3.0578
2.64287
2.64896
2.64836
2.64774
2.6475
2.64748
2.64756
2.64772
2.64739
2.64561
2.64527
2.64623
2.64814
2.65844
2.65879
2.80631
3.45309
215.518
272.481
741.93
757.148
758.731
759.962
760.759
760.622
759.153
756.201
751.197
745.673
739.332
731.435
721.646
715.633
704.876
700.876
697.976
686.139
264.862
265.002
655.032
672.717
675.334
677.438
678.767
678.948
677.423
674.035
668.144
661.333
652.924
642.948
632.13
623.223
610.518
604.498
594.116
569.186
257.173
262.659
637.167
656.287
659.488
662.15
663.89
664.399
663.032
659.619
653.514
646.266
637.187
626.579
614.513
605.933
593.26
586.1
571.819
540.192
254.756
257.546
592.057
616.796
621.884
626.253
629.115
630.519
629.242
625.078
617.447
607.962
596.43
582.563
568.62
560.022
545.603
535.068
505.98
460.964
251.125
254.814
499.127
519.822
522.73
525.783
528.222
529.574
529.059
526.097
520.707
514.648
507.603
500.604
493.295
485.377
476.587
473.315
452.076
410.905
249.455
251.096
390.697
411.887
415.367
417.833
419.601
421.232
420.793
418.186
412.607
405.434
398.888
390.787
385.067
377.886
370.922
359.975
337.57
305.175
246.177
246.805
237.868
252.208
254.883
257.149
258.896
259.971
260.316
259.329
257.34
254.56
252.52
250.481
248.854
249.498
251.334
254.614
266.991
247.826
244.683
243.233
162.713
173.105
175.434
177.522
179.184
180.246
180.61
180.322
179.317
177.694
176.701
175.989
175.794
174.536
171.309
164.474
162.437
150.578
240.468
237.834
93.6193
95.8933
96.0677
96.5168
96.8926
97.2834
97.5179
97.6655
97.6774
97.745
98.0732
98.4033
98.9881
99.7079
100.472
108.214
118.009
111.957
238.351
234.942
67.0733
62.8795
62.2442
62.0991
61.99
61.9652
62.0422
62.2155
62.4785
62.8405
63.2831
63.7533
64.2823
64.9268
65.9227
66.9601
69.9041
68.3749
233.214
229.506
49.7562
48.7547
48.9506
48.7886
48.666
48.6174
48.661
48.7905
49.0068
49.301
49.6502
50.0572
50.4944
51.1029
52.1015
52.3949
55.5032
57.9679
230.604
226.747
45.0926
40.7067
40.2101
40.2352
40.2499
40.2545
40.2624
40.283
40.2999
40.3205
40.3962
40.4345
40.4132
40.2508
39.5558
39.5973
37.1138
37.4532
225.619
221.843
27.724
27.5278
27.9526
27.8852
27.827
27.7963
27.7868
27.7808
27.7962
27.8203
27.8407
27.8732
27.9683
28.2229
28.9145
28.7849
32.1283
33.0398
222.981
219.238
23.0227
20.274
19.7483
19.7826
19.8099
19.8066
19.7842
19.7632
19.7327
19.6828
19.7318
19.7189
19.6394
19.3794
18.5282
18.552
15.0278
15.444
218.256
214.66
5.0607
5.45612
5.96062
5.90457
5.84343
5.80744
5.78519
5.77296
5.77324
5.75904
5.70688
5.71106
5.78825
5.94165
6.72379
6.71943
10.1235
10.574
215.725
937.593
922.999
922.776
922.669
922.604
922.556
922.551
922.565
922.59
922.569
922.665
922.832
922.911
923.028
923.198
923.53
923.904
924.114
924.558
928.455
847.521
835.066
834.833
834.709
834.622
834.558
834.533
834.525
834.531
834.508
834.595
834.74
834.817
834.887
834.979
835.2
835.487
835.8
836.207
841.629
770.292
758.507
758.288
758.155
758.061
757.99
757.956
757.939
757.937
757.912
757.993
758.124
758.203
758.239
758.303
758.483
758.724
759.075
759.475
764.753
693.927
683.68
683.448
683.306
683.2
683.12
683.078
683.053
683.046
683.034
683.122
683.25
683.337
683.377
683.419
683.564
683.819
684.244
684.652
689.266
625.823
615.975
615.756
615.609
615.498
615.415
615.368
615.338
615.329
615.32
615.409
615.531
615.627
615.649
615.685
615.817
616.053
616.504
616.917
621.56
558.879
551.165
550.99
550.895
550.822
550.77
550.738
550.708
550.679
550.652
550.69
550.731
550.743
550.686
550.671
550.728
550.818
551.079
551.396
555.373
499.985
492.792
492.636
492.561
492.503
492.451
492.418
492.391
492.375
492.345
492.37
492.387
492.381
492.3
492.28
492.316
492.351
492.568
492.738
496.887
441.946
437.772
437.716
437.724
437.724
437.724
437.708
437.671
437.618
437.553
437.498
437.384
437.274
437.088
437.011
436.944
436.83
436.73
436.696
439.79
391.95
387.512
387.42
387.39
387.373
387.348
387.345
387.33
387.325
387.298
387.314
387.325
387.299
387.223
387.257
387.263
387.24
387.332
387.333
390.305
342.824
341.082
341.124
341.195
341.243
341.284
341.276
341.24
341.182
341.106
340.999
340.783
340.623
340.431
340.328
340.171
340.021
339.834
339.742
341.921
301.432
298.184
298.088
298.042
298.017
297.985
297.994
298.002
298.028
298.047
298.108
298.23
298.267
298.314
298.453
298.528
298.585
298.718
298.721
300.914
261.52
260.402
260.495
260.578
260.628
260.684
260.667
260.635
260.577
260.48
260.343
260.115
259.98
259.909
259.77
259.707
259.689
259.676
259.663
261.325
228.37
225.888
225.856
225.858
225.86
225.861
225.86
225.859
225.856
225.851
225.877
226.131
226.316
226.43
226.548
226.627
226.624
226.614
226.614
228.311
218.801
196.494
196.515
196.515
196.515
196.514
196.515
196.516
196.517
196.518
196.462
196.197
196.031
195.857
195.862
195.861
195.859
195.859
195.859
218.805
215.938
169.447
169.446
169.446
169.447
169.447
169.447
169.448
169.448
169.448
169.448
169.705
169.889
170.078
170.084
170.085
170.086
170.086
170.087
215.943
724.481
694.211
670.324
650.657
635.08
623.627
616.366
613.527
614.451
619.268
627.912
640.07
655.856
674.886
697.387
726.427
597.916
576.967
562.051
550.469
541.656
535.369
531.567
530.075
530.572
533.294
538.201
545.25
554.426
565.731
579.589
598.832
578.381
555.27
539.426
527.104
517.699
510.935
506.755
505.026
505.266
507.824
512.649
519.726
529.08
540.796
555.134
574.798
584.994
562.821
547.689
536.169
527.489
521.265
517.341
515.617
515.57
517.528
521.486
527.479
535.599
546.024
559.131
577.055
620.763
596.402
579.672
566.739
556.884
549.707
544.991
542.704
542.311
544.038
547.972
554.168
562.753
573.961
588.282
607.549
641.803
617.407
600.597
587.592
577.687
570.466
565.695
563.346
562.915
564.616
568.553
574.8
583.507
594.927
609.564
629.263
662.036
637.936
621.102
608.075
598.195
591.049
586.419
584.244
584.011
586.021
590.334
597.035
606.294
618.389
633.853
654.555
674.554
651.629
635.436
622.984
613.62
606.939
602.755
600.942
601.029
603.36
607.967
614.949
624.479
636.851
652.605
673.562
686.818
664.715
648.884
636.782
627.748
621.375
617.492
615.908
616.236
618.761
623.525
630.636
640.278
652.737
668.548
689.471
700.712
678.199
661.923
649.553
640.356
633.895
629.979
628.392
628.761
631.374
636.261
643.505
653.276
665.852
681.769
702.712
714.283
689.157
670.791
656.98
646.814
639.729
635.453
633.715
634.04
636.721
641.781
649.313
659.491
672.59
689.184
711.176
721.883
693.375
673.32
658.545
647.774
640.307
635.81
633.98
634.277
637.013
642.204
649.938
660.376
673.763
690.542
713.402
723.153
690.995
668.636
652.278
640.393
632.169
627.208
625.162
625.381
628.208
633.653
641.799
652.801
666.872
684.504
709.162
718.752
683.005
658.839
641.261
628.531
619.741
614.425
612.209
612.352
615.227
620.834
629.247
640.589
655.091
673.427
699.453
712.282
674.504
648.992
630.435
617.001
607.703
602.041
599.644
599.695
602.592
608.336
616.999
628.726
643.685
662.403
689.026
712.032
685.015
661.581
642.009
626.394
614.534
607.259
604.423
605.261
609.789
618.263
630.537
646.424
665.851
688.807
715.542
589.948
572.554
558.087
546.529
537.625
531.18
527.122
525.372
525.664
528.146
532.822
539.697
548.831
560.286
574.238
590.912
569.482
550.42
534.962
522.709
513.264
506.391
501.987
500.014
500.103
502.484
507.178
514.213
523.658
535.628
550.306
567.868
576.837
558.425
543.804
532.442
523.805
517.55
513.476
511.528
511.353
513.12
516.894
522.759
530.857
541.396
554.654
570.89
611.492
591.073
574.83
562.1
552.331
545.162
540.355
537.869
537.363
538.937
542.718
548.82
557.419
568.763
583.167
600.903
632.004
611.502
595.212
582.445
572.65
565.453
560.609
558.071
557.515
559.036
562.786
568.901
577.582
589.104
603.814
622.049
651.832
631.417
615.134
602.374
592.623
585.519
580.82
578.483
578.149
579.973
584.092
590.661
599.902
612.116
627.677
646.979
664.687
645.119
629.5
617.312
608.07
601.422
597.159
595.205
595.192
597.337
601.749
608.588
618.097
630.584
646.439
666.096
677.66
658.573
643.31
631.433
622.48
616.103
612.11
610.376
610.574
612.892
617.439
624.386
633.984
646.542
662.459
682.191
692.223
672.56
656.832
644.613
635.423
628.887
624.783
622.98
623.157
625.511
630.143
637.2
646.893
659.538
675.555
695.415
705.879
683.646
665.844
652.147
641.948
634.748
630.238
628.238
628.328
630.704
635.462
642.753
652.813
665.977
682.723
703.626
712.585
687.717
668.373
653.725
642.907
635.303
630.539
628.41
628.441
630.842
635.7
643.167
653.478
666.972
684.16
705.716
712.78
684.922
663.359
647.145
635.237
626.895
621.668
619.305
619.26
621.748
626.857
634.74
645.642
659.921
678.152
701.121
706.837
676.306
653.031
635.674
622.986
614.118
608.56
606.029
605.931
608.482
613.776
621.961
633.283
648.117
667.104
691.131
699.008
666.932
642.509
624.302
610.982
601.655
595.781
593.077
592.914
595.511
600.966
609.43
621.146
636.479
656.017
680.709
706.11
679.839
656.816
637.353
621.666
609.94
602.981
600.394
601.291
605.623
614.039
626.647
642.596
662.316
685.393
711.603
586.331
570.007
556.06
544.671
535.784
529.299
525.149
523.283
523.588
526.077
530.787
537.732
546.977
558.574
572.566
588.822
565.454
547.808
532.881
520.766
511.315
504.383
499.876
497.76
497.897
500.325
505.083
512.198
521.736
533.801
548.483
565.695
573.141
556.209
542.153
530.948
522.323
516.025
511.873
509.785
509.613
511.384
515.159
521.031
529.144
539.698
552.903
568.801
607.036
588.204
572.535
559.982
550.249
543.059
538.205
535.6
535.096
536.707
540.51
546.628
555.241
566.587
580.91
598.285
627
608.074
592.375
579.812
570.072
562.866
557.98
555.322
554.754
556.296
560.04
566.143
574.815
586.335
600.996
618.925
646.442
627.493
611.784
599.241
589.562
582.458
577.719
575.256
574.908
576.732
580.843
587.408
596.658
608.894
624.426
643.421
659.488
641.214
626.13
614.146
604.966
598.314
593.989
591.902
591.874
594.003
598.406
605.254
614.796
627.341
643.212
662.604
673.028
655.038
640.243
628.525
619.596
613.184
609.098
607.227
607.387
609.679
614.215
621.174
630.826
643.478
659.455
678.97
688.238
669.52
654.181
642.053
632.826
626.2
621.953
619.977
620.089
622.402
627.015
634.089
643.85
656.62
672.735
692.39
702.159
680.774
663.346
649.713
639.446
632.128
627.453
625.257
625.278
627.616
632.358
639.678
649.836
663.179
680.08
700.737
708.459
684.7
665.826
651.266
640.386
632.662
627.731
625.402
625.374
627.748
632.606
640.121
650.561
664.284
681.68
703.003
708.065
681.564
660.582
644.503
632.563
624.126
618.749
616.197
616.12
618.613
623.753
631.719
642.793
657.359
675.819
698.513
701.367
672.484
649.91
632.756
620.084
611.158
605.477
602.774
602.673
605.263
610.619
618.92
630.453
645.6
664.826
688.517
692.872
662.601
638.998
621.069
607.812
598.459
592.485
589.622
589.479
592.139
597.678
606.269
618.194
633.825
653.614
677.966
706.463
680.192
657.29
637.911
622.31
610.692
603.76
601.123
601.952
606.137
614.413
627.005
643.128
662.846
685.905
711.958
586.77
570.623
556.847
545.572
536.743
530.281
526.118
524.199
524.455
526.799
531.427
538.309
547.508
559.123
573.217
589.608
565.878
548.473
533.702
521.661
512.238
505.312
500.793
498.624
498.743
501.014
505.676
512.698
522.169
534.232
549.042
566.512
573.606
556.939
543.036
531.885
523.267
516.957
512.785
510.639
510.439
512.066
515.725
521.497
529.53
540.073
553.412
569.581
607.297
588.731
573.198
560.68
550.935
543.714
538.825
536.145
535.598
537.081
540.757
546.774
555.297
566.613
581.041
598.664
626.906
608.251
592.68
580.138
570.365
563.099
558.142
555.373
554.731
556.153
559.794
565.832
574.457
585.975
600.72
618.815
645.959
627.296
611.752
599.232
589.497
582.305
577.47
574.88
574.475
576.198
580.246
586.778
596.015
608.285
623.931
643.098
659.038
640.966
626.007
614.029
604.786
598.041
593.612
591.39
591.312
593.345
597.711
604.55
614.112
626.732
642.756
662.344
673.024
655.118
640.366
628.62
619.612
613.083
608.859
606.831
606.918
609.107
613.606
620.561
630.251
643.004
659.165
678.906
688.679
669.989
654.645
642.454
633.119
626.36
621.964
619.793
619.798
621.979
626.526
633.577
643.372
656.255
672.576
692.523
702.991
681.568
664.093
650.364
639.958
632.479
627.628
625.211
625.103
627.293
631.955
639.249
649.45
662.929
680.082
701.147
709.377
685.583
666.664
652.006
640.981
633.091
627.981
625.422
625.262
627.483
632.256
639.745
650.234
664.115
681.823
703.634
708.968
682.46
661.464
645.308
633.236
624.641
619.093
616.315
616.117
618.458
623.517
631.466
642.604
657.363
676.23
699.496
702.204
673.314
650.742
633.534
620.749
611.68
605.841
602.923
602.716
605.162
610.449
618.745
630.36
645.748
665.428
689.736
693.633
663.34
639.762
621.789
608.428
598.942
592.823
589.754
589.518
592.042
597.518
606.109
618.115
633.986
654.235
679.198
711.228
684.623
661.985
642.993
627.921
616.509
609.414
606.495
607.266
611.557
619.89
632.293
648.589
668.417
691.778
718.533
590.035
573.644
560.067
549.044
540.396
534.05
529.952
528.05
528.288
530.475
534.987
541.792
550.972
562.694
577.233
594.681
569.225
551.629
536.988
525.129
515.861
509.058
504.638
502.538
502.695
504.819
509.366
516.318
525.772
537.944
553.222
572.071
576.905
560.042
546.193
535.13
526.576
520.311
516.174
514.047
513.868
515.379
518.941
524.68
532.736
543.436
557.303
574.855
610.528
591.733
576.226
563.776
554.085
546.906
542.056
539.419
538.917
540.314
543.903
549.907
558.469
569.952
584.898
603.925
629.72
610.797
595.231
582.736
572.993
565.747
560.814
558.079
557.485
558.827
562.384
568.411
577.08
588.777
604.054
623.528
648.587
629.574
613.977
601.482
591.774
584.605
579.793
577.232
576.869
578.5
582.485
589.025
598.335
610.821
627.036
647.571
661.656
643.223
628.192
616.217
606.979
600.231
595.8
593.586
593.545
595.478
599.814
606.692
616.373
629.274
645.938
666.911
675.919
657.649
642.817
631.043
621.996
615.433
611.18
609.135
609.24
611.331
615.815
622.836
632.679
645.767
662.632
683.769
692.231
673.079
657.595
645.329
635.906
629.054
624.581
622.373
622.381
624.441
628.947
636.035
645.983
659.222
676.291
697.635
707.201
685.159
667.499
653.665
643.133
635.519
630.549
628.048
627.925
629.985
634.597
641.94
652.315
666.197
684.187
706.74
713.818
689.282
670.193
655.447
644.303
636.28
631.049
628.405
628.237
630.33
635.053
642.598
653.276
667.591
686.199
709.619
713.565
686.198
665.109
648.938
636.787
628.081
622.43
619.58
619.395
621.62
626.647
634.678
646.042
661.288
681.139
706.17
706.961
677.083
654.403
637.237
624.411
615.257
609.338
606.374
606.209
608.554
613.83
622.236
634.112
650.031
670.771
697.002
698.52
667.194
643.537
625.584
612.177
602.617
596.44
593.35
593.18
595.612
601.088
609.8
622.08
638.501
659.844
686.806
723.225
694.549
672.415
653.849
638.861
627.645
620.231
616.836
617.326
621.391
629.425
641.681
657.746
677.579
701.285
731.466
599.844
580.943
567.434
556.54
547.809
541.244
536.831
534.605
534.593
536.44
540.66
547.273
556.317
568.004
582.887
603.983
578.078
558.336
544.029
532.427
523.232
516.341
511.706
509.342
509.306
511.142
515.434
522.254
531.641
543.837
559.403
582.246
584.759
566.207
552.549
541.655
533.103
526.694
522.309
519.916
519.54
520.852
524.225
529.91
537.993
548.825
563.166
584.28
617.768
597.509
582.234
570.046
560.449
553.213
548.208
545.37
544.725
545.979
549.423
555.417
564.049
575.711
591.126
613.819
636.112
615.842
600.515
588.275
578.631
571.351
566.301
563.422
562.726
563.959
567.407
573.453
582.224
594.152
609.965
633.087
654.503
634.229
618.847
606.59
596.984
589.798
584.902
582.241
581.828
583.365
587.285
593.882
603.342
616.129
632.962
657.147
667.628
647.99
633.092
621.267
612.063
605.255
600.722
598.412
598.335
600.174
604.483
611.459
621.342
634.616
652.012
676.598
682.529
663.065
648.273
636.542
627.433
620.729
616.308
614.115
614.148
616.121
620.589
627.722
637.793
651.3
668.996
693.661
699.982
679.549
663.99
651.639
642.023
634.911
630.171
627.735
627.597
629.488
633.91
641.062
651.211
664.871
682.838
707.625
716.155
692.659
674.915
660.904
650.049
642.047
636.692
633.858
633.495
635.329
639.808
647.191
657.757
672.075
691.071
717.163
723.602
697.026
678.072
663.151
651.642
643.179
637.512
634.481
634.023
635.849
640.401
647.96
658.813
673.564
693.258
720.483
724.181
694.013
673.317
657.17
644.701
635.543
629.423
626.154
625.651
627.586
632.428
640.48
652.039
667.752
688.761
717.915
718.204
684.99
662.722
645.703
632.66
623.076
616.693
613.31
612.834
614.89
619.993
628.443
640.55
656.985
678.952
709.735
709.82
675.073
652.082
634.325
620.674
610.702
604.084
600.596
600.136
602.291
607.609
616.387
628.929
645.91
668.539
700.321
770.614
627.695
606.77
607.385
641.247
664.565
692.001
711.123
726.539
739.475
749.879
754.175
752.961
745.633
736.848
850.133
678.652
662.283
663.297
703.877
730.718
762.156
782.108
797.376
810.483
824.13
833.845
837.08
835.14
829.497
946.849
744.612
740.734
747.358
797.897
830.933
867.372
887.732
901.6
913.544
930.133
947.834
962.373
970.162
972.148
1063.45
838
862.697
879.348
942.764
986.336
1028.52
1048.89
1059.82
1068.7
1088.1
1116.69
1149.71
1181.65
1199.5
1222.73
993.97
1067.81
1104.89
1182.7
1245.85
1294.22
1313.69
1319.87
1321.94
1340.07
1378.44
1435.92
1509.26
1573.7
1534.86
1328.31
1485.19
1566.75
1658.51
1759.91
1815.85
1835.3
1835.11
1827.33
1838.69
1883.71
1958.11
2063.55
2211.33
2405.87
2259.67
2585.31
2762.93
2878.12
3067.26
3156.02
3198.97
3198.38
3182.71
3193.1
3245.6
3329.44
3407.73
3448.42
8168.42
7612.1
7662.88
8000.94
8388.86
8703.84
9228.93
9717.24
10321.3
10854.5
11361.6
11768.8
11954.4
11963.8
11294.2
741.819
608.87
587.048
588.488
620.796
643.383
669.59
688.227
703.447
716.154
725.021
727.72
724.504
715.641
706.154
819.685
658.367
640.003
640.434
678.877
704.497
734.365
753.561
768.558
781.449
793.905
800.847
801.958
797.53
790.697
914.984
720.714
712.179
716.712
764.586
795.567
830.159
849.547
863.222
875.144
890.461
905.25
915.487
919.13
919.353
1029.75
807.543
822.635
835.793
896.352
936.524
976.719
995.945
1006.94
1016.2
1034.59
1060.01
1087.69
1112.68
1126.09
1180.12
949.753
1008.55
1039.73
1114.47
1172.17
1218.16
1236.83
1243.82
1246.92
1264.62
1300.11
1352.23
1417.93
1473.51
1471.9
1254.19
1390.25
1461.49
1551.54
1643.49
1696.72
1715.81
1718.03
1713.03
1725.47
1769.17
1842.15
1944.05
2085.34
2285.8
2118.46
2412.85
2568.93
2684.71
2851.42
2934.63
2977.84
2988.49
2985.5
2999.96
3053.33
3140.83
3234.39
3297.77
7690.24
7136.94
7174.79
7489.7
7851.41
8141.64
8643
9115.31
9693.67
10204
10695.5
11115.5
11312.6
11325
10691.7
716.122
592.173
569.468
571.971
602.908
625
650.164
668.439
683.598
696.238
703.959
705.826
701.022
691.02
680.967
791.734
639.906
620.023
620.372
657.053
681.759
710.239
728.785
743.568
756.308
767.623
772.418
771.894
765.591
757.948
885.415
699.546
687.634
690.595
736.163
765.504
798.376
816.882
830.373
842.271
856.47
868.85
875.307
876.576
875.301
999.066
781.712
788.915
799.366
857.319
894.756
933.053
951.233
962.252
971.875
989.391
1012.07
1035.13
1054.93
1065.4
1143.8
912.886
959.057
985.624
1057.77
1111.25
1155.32
1173.44
1180.9
1185
1202.57
1235.88
1283.28
1342.37
1390.82
1419.58
1193.25
1309.78
1372.91
1461.59
1546.94
1599.19
1618.77
1622.64
1619.81
1633.57
1676.77
1749.2
1848.93
1983.64
2181.29
1997.84
2263.15
2404.54
2522.17
2676.29
2759.04
2804.3
2820.32
2822.72
2840.04
2895.22
2988.46
3092.59
3170.26
7265.78
6726.34
6762.12
7062.15
7402.48
7682.25
8160.83
8613.72
9159.43
9641
10116.7
10528.9
10725.3
10742.9
10141.1
693.536
577.604
554.202
557.896
587.772
609.565
633.883
651.867
666.973
679.512
686.322
687.64
681.593
670.768
660.279
766.858
623.454
602.445
603.119
638.436
662.501
689.802
707.798
722.403
735.034
745.036
748.583
746.547
738.955
730.797
858.924
681.097
666.78
668.74
712.47
740.566
771.908
789.625
802.928
814.775
827.997
838.136
841.904
841.805
839.402
971.775
760.393
761.142
769.832
825.565
860.826
897.318
914.552
925.547
935.427
952.084
972.333
991.749
1008.03
1016.81
1114.24
883.964
920.128
943.478
1013.36
1063.13
1105.21
1122.77
1130.49
1135.4
1152.71
1184.01
1227.42
1281.05
1325
1379.81
1148.06
1249.65
1307.31
1394.09
1472.75
1522.89
1542.84
1547.73
1546.5
1560.96
1603.03
1673.7
1772.65
1902.35
2102.45
1905.11
2148.9
2283.45