/*--------------------------------*- C++ -*----------------------------------*\
| =========                 |                                                 |
| \\      /  F ield         | OpenFOAM: The Open Source CFD Toolbox           |
|  \\    /   O peration     | Version:  1.7.x                                 |
|   \\  /    A nd           | Web:      www.OpenFOAM.com                      |
|    \\/     M anipulation  |                                                 |
\*---------------------------------------------------------------------------*/
FoamFile
{
    version     2.0;
    format      ascii;
    class       volScalarField;
    location    "0.003";
    object      alphat;
}
// * * * * * * * * * * * * * * * * * * * * * * * * * * * * * * * * * * * * * //

dimensions      [1 -1 -1 0 0 0 0];

internalField   nonuniform List<scalar> 
206988
(
1.9196924e-05
6.3450067e-06
8.3281695e-07
9.5242716e-08
1.6353919e-08
9.6070464e-09
9.1948652e-09
9.0330189e-09
9.3786722e-09
9.1139057e-09
9.7132889e-09
9.4458119e-09
9.6606163e-09
9.4108492e-09
9.2374433e-09
9.2068362e-09
9.2087248e-09
1.6341632e-08
9.2952547e-07
7.2834475e-06
1.3383403e-05
4.7909089e-06
3.700729e-07
3.9880626e-08
1.2988262e-08
1.0587018e-08
1.0758056e-08
1.0161184e-08
1.0803461e-08
9.795484e-09
1.0651969e-08
9.7502342e-09
1.0079698e-08
9.6789574e-09
9.649939e-09
9.3236881e-09
8.9828634e-09
1.024203e-08
2.578854e-07
6.797379e-06
8.6726751e-06
1.867277e-06
1.2048656e-07
1.8666467e-08
1.2414373e-08
1.1817646e-08
1.1761434e-08
1.1147832e-08
1.1387615e-08
1.0235619e-08
1.1349618e-08
9.9803636e-09
1.0522704e-08
9.523181e-09
1.0184789e-08
9.2090273e-09
9.2989885e-09
1.2583744e-08
8.5401822e-07
6.9817554e-06
6.5836322e-06
7.1460048e-07
4.1520559e-08
1.4847981e-08
1.3488303e-08
1.2936937e-08
1.3167708e-08
1.2094859e-08
1.3201425e-08
1.0930596e-08
1.3332927e-08
1.0292122e-08
1.2338212e-08
9.3944454e-09
1.0938402e-08
9.3237579e-09
1.0079642e-08
8.0323321e-09
2.290771e-07
7.0354125e-06
5.780522e-06
3.7513638e-07
2.2606193e-08
1.5571224e-08
1.5314506e-08
1.47533e-08
1.5035802e-08
1.3364272e-08
1.5459014e-08
1.1703181e-08
1.5159523e-08
1.0719569e-08
1.2797999e-08
9.6123096e-09
1.1543864e-08
9.5745269e-09
1.0562594e-08
1.6441444e-08
6.5098463e-07
6.5489338e-06
5.1630292e-06
2.674308e-07
1.900174e-08
1.6690041e-08
1.6257714e-08
1.608778e-08
1.5846983e-08
1.5032595e-08
1.5442691e-08
1.2607213e-08
1.6240853e-08
1.0480796e-08
1.3037299e-08
1.027473e-08
1.2299992e-08
1.0413538e-08
1.1171082e-08
1.0105496e-08
3.2124599e-07
6.4779556e-06
4.3655059e-06
2.4446391e-07
2.0276687e-08
1.8263192e-08
1.7754452e-08
1.7418663e-08
1.6797858e-08
1.7019235e-08
1.5849531e-08
1.4905193e-08
1.4484325e-08
1.1260735e-08
1.4041391e-08
1.248183e-08
1.222683e-08
1.153603e-08
1.1414916e-08
1.2386601e-08
1.0791928e-07
5.9920719e-06
3.6183625e-06
2.0292953e-07
2.1844827e-08
2.039433e-08
1.9944445e-08
1.9696223e-08
1.8339697e-08
1.8646225e-08
1.6446384e-08
1.6802999e-08
1.5066902e-08
1.4311282e-08
1.4300267e-08
1.3971034e-08
1.306119e-08
1.2723773e-08
1.2178788e-08
2.0723651e-08
5.8171465e-07
5.2032604e-06
3.1575931e-06
1.8873308e-07
2.3673418e-08
2.2310435e-08
2.2089597e-08
2.156481e-08
2.053171e-08
1.9718166e-08
1.7834938e-08
1.7183915e-08
1.6461124e-08
1.6618058e-08
1.4356282e-08
1.6146887e-08
1.3988032e-08
1.4001811e-08
1.3268047e-08
1.615795e-08
4.1600486e-07
4.8751097e-06
2.8308398e-06
1.7622121e-07
2.6322793e-08
2.5227102e-08
2.4629327e-08
2.4126001e-08
2.3226552e-08
2.1269177e-08
2.0854997e-08
1.8888478e-08
1.7136527e-08
2.0922212e-08
1.5453476e-08
1.6863966e-08
1.5075635e-08
1.5859801e-08
1.4372505e-08
1.7154267e-08
3.1559131e-07
4.6064111e-06
2.6381297e-06
1.8675149e-07
2.9214896e-08
2.8123426e-08
2.7149035e-08
2.6420749e-08
2.5955845e-08
2.4586623e-08
2.4495781e-08
2.2488281e-08
1.8285634e-08
2.0221119e-08
1.7694332e-08
1.7921464e-08
1.628935e-08
1.7701868e-08
1.5829301e-08
1.9912849e-08
2.3034453e-07
4.5203295e-06
2.4792672e-06
1.882296e-07
3.2818622e-08
3.1560006e-08
3.1103248e-08
2.9279051e-08
2.9384841e-08
2.9311467e-08
2.7388763e-08
2.5170226e-08
2.3341614e-08
1.9562196e-08
1.9993166e-08
2.0262913e-08
1.8057727e-08
1.9419881e-08
1.7399109e-08
2.1302433e-08
2.9609475e-07
4.9567807e-06
2.3705037e-06
2.0237343e-07
3.5653677e-08
3.3843831e-08
3.3995274e-08
3.2524311e-08
3.1777732e-08
2.9977338e-08
2.8801307e-08
2.6697707e-08
2.624557e-08
2.1154747e-08
2.1831607e-08
2.2090621e-08
1.9745208e-08
2.1585383e-08
1.8944576e-08
2.2946489e-08
2.988905e-07
4.8999218e-06
2.2458116e-06
2.3080746e-07
4.002744e-08
3.7971663e-08
3.7296716e-08
3.6798194e-08
3.5056774e-08
3.271287e-08
2.979336e-08
2.9688981e-08
2.7064705e-08
2.7790962e-08
2.2217801e-08
2.5778183e-08
2.1653448e-08
2.3879562e-08
2.0900286e-08
2.8775002e-08
4.3624769e-07
4.8300424e-06
2.0663934e-06
2.4561279e-07
4.5476369e-08
4.3537368e-08
4.2940306e-08
4.1953326e-08
4.038712e-08
3.7933553e-08
3.608285e-08
3.1920409e-08
2.8868253e-08
3.0028473e-08
2.5056466e-08
2.9322055e-08
2.3935264e-08
2.7000118e-08
2.3313566e-08
2.8444864e-08
4.5070213e-07
4.7143783e-06
1.9017721e-06
2.5660073e-07
4.9368316e-08
4.8169534e-08
4.6544356e-08
4.6242507e-08
4.2987436e-08
3.9837916e-08
4.5886749e-08
3.3162608e-08
3.4060104e-08
2.9134165e-08
2.9779174e-08
3.2725374e-08
2.6994768e-08
2.8911717e-08
2.5858606e-08
3.2677675e-08
4.0634066e-07
4.5444469e-06
1.7523352e-06
2.675799e-07
5.3477451e-08
5.2997876e-08
4.9425563e-08
4.8485374e-08
4.6785625e-08
4.2383965e-08
4.3371091e-08
4.2692142e-08
3.4153299e-08
3.7926233e-08
3.1504673e-08
3.6473385e-08
2.9758946e-08
3.2679115e-08
2.8621713e-08
3.4703845e-08
5.1643173e-07
4.3212681e-06
1.5766065e-06
2.7495644e-07
6.0948755e-08
6.0215979e-08
5.7171652e-08
5.4189555e-08
5.2771549e-08
6.304979e-08
4.0979645e-08
4.8119066e-08
3.3871005e-08
4.5658248e-08
3.5338465e-08
4.0424833e-08
3.2832848e-08
3.5863101e-08
3.1477065e-08
3.8894194e-08
5.1185805e-07
4.1067943e-06
1.4537794e-06
2.7430116e-07
6.3897394e-08
6.2879612e-08
6.0514171e-08
6.2243178e-08
5.1018375e-08
6.0818403e-08
3.7043462e-08
5.2906719e-08
3.9168106e-08
5.891622e-08
3.7688482e-08
4.7257998e-08
3.6086013e-08
4.0027393e-08
3.448188e-08
4.3756276e-08
5.0982327e-07
3.8208562e-06
1.3297589e-06
2.7765897e-07
6.5795772e-08
6.4779106e-08
6.4636199e-08
6.4880886e-08
5.8162362e-08
5.456176e-08
4.9706721e-08
5.557907e-08
3.8280703e-08
5.8882141e-08
3.9593402e-08
5.1791877e-08
3.8375014e-08
4.5464584e-08
3.7571574e-08
4.7271084e-08
5.6482718e-07
3.5047935e-06
1.1916801e-06
2.598987e-07
6.563252e-08
6.462803e-08
6.4701188e-08
6.4651191e-08
6.4869483e-08
6.4061118e-08
6.0608553e-08
5.3996713e-08
5.165348e-08
5.6149262e-08
4.5317676e-08
5.2902081e-08
4.2865583e-08
4.7555141e-08
4.1366964e-08
5.1002479e-08
5.5873688e-07
3.2065198e-06
1.0651691e-06
2.3726529e-07
6.5651066e-08
6.4834649e-08
6.4928796e-08
6.4870843e-08
6.5297877e-08
6.4785327e-08
6.5626886e-08
5.4776146e-08
5.3643501e-08
6.4874624e-08
4.7824599e-08
6.083051e-08
4.6684579e-08
5.3743389e-08
4.5149143e-08
5.5443506e-08
4.872764e-07
2.8799199e-06
9.5493335e-07
2.2126096e-07
6.5213221e-08
6.4257774e-08
6.4351475e-08
6.4392166e-08
6.4395899e-08
6.4533425e-08
6.4808183e-08
6.3947705e-08
4.9548387e-08
6.4643427e-08
4.941686e-08
6.5114447e-08
4.8444485e-08
5.8588707e-08
4.7699342e-08
6.05811e-08
5.5709147e-07
2.5634482e-06
8.379155e-07
2.0316561e-07
6.4294912e-08
6.3526711e-08
6.3652283e-08
6.3598315e-08
6.3943825e-08
6.3302938e-08
6.4094679e-08
6.3342213e-08
5.2793102e-08
6.4085256e-08
5.2932974e-08
6.4400455e-08
5.2562345e-08
6.3879406e-08
5.213212e-08
6.3720211e-08
5.0055826e-07
2.2604608e-06
7.2241436e-07
1.8586327e-07
6.4272293e-08
6.3679324e-08
6.3921972e-08
6.3669698e-08
6.4031767e-08
6.3621364e-08
6.4076531e-08
6.4051542e-08
6.0378155e-08
6.425421e-08
5.7717314e-08
6.4284781e-08
5.6874665e-08
6.4476184e-08
5.5970569e-08
6.7695991e-08
4.7365814e-07
1.9733942e-06
6.1481101e-07
1.6978968e-07
6.3981936e-08
6.3287371e-08
6.3537335e-08
6.3338982e-08
6.3611756e-08
6.3407217e-08
6.3468135e-08
6.3479506e-08
6.0643603e-08
6.3636302e-08
6.0991373e-08
6.3762415e-08
6.0448491e-08
6.394033e-08
5.9504319e-08
7.0047412e-08
4.509651e-07
1.6946253e-06
5.1500766e-07
1.4945567e-07
6.3077468e-08
6.2517563e-08
6.2669065e-08
6.2536277e-08
6.2851957e-08
6.2673156e-08
6.2952739e-08
6.2532497e-08
6.2805017e-08
6.3085956e-08
6.3382224e-08
6.3321658e-08
6.2677369e-08
6.3535455e-08
6.1495096e-08
6.9502882e-08
4.4362419e-07
1.4661235e-06
4.1330998e-07
1.3477697e-07
6.2996837e-08
6.2673537e-08
6.2751678e-08
6.2622128e-08
6.2899452e-08
6.2733033e-08
6.3223356e-08
6.247809e-08
6.3315443e-08
6.3021483e-08
6.3392671e-08
6.3257833e-08
6.339557e-08
6.3258977e-08
6.3580704e-08
6.8146037e-08
3.8508354e-07
1.1879859e-06
3.3921348e-07
1.2096599e-07
6.2779629e-08
6.2507768e-08
6.2513189e-08
6.2408994e-08
6.2654782e-08
6.2481805e-08
6.2968537e-08
6.2457074e-08
6.3093647e-08
6.3044689e-08
6.3165748e-08
6.3109527e-08
6.3285457e-08
6.3085565e-08
6.336421e-08
6.8717793e-08
3.8543026e-07
1.0317853e-06
2.4317442e-07
1.0664587e-07
6.1993455e-08
6.1807513e-08
6.1979175e-08
6.1808399e-08
6.2358111e-08
6.2009787e-08
6.2739897e-08
6.2098729e-08
6.3053468e-08
6.2706956e-08
6.3171008e-08
6.3300101e-08
6.316348e-08
6.3212853e-08
6.3054211e-08
6.4808038e-08
2.4813016e-07
8.5399446e-07
1.7307417e-05
7.5954448e-06
4.0034443e-06
5.0485278e-07
8.0924366e-08
5.9617931e-08
5.5567701e-08
7.1371634e-08
5.948327e-08
8.4300588e-08
5.6579278e-08
8.6839449e-08
8.0944012e-08
6.2079026e-08
5.6512935e-08
2.9829505e-08
3.6545764e-08
1.3981933e-07
1.2021006e-06
7.183836e-06
1.3785521e-05
7.5762856e-06
1.8006708e-06
1.7025273e-07
5.8357468e-08
4.8882648e-08
5.2816249e-08
4.965072e-08
5.8537161e-08
7.0347698e-08
6.1759691e-08
9.8770639e-08
6.7877307e-08
8.4990429e-08
4.7941323e-08
4.9064911e-08
4.0068792e-08
1.7406305e-08
1.0454303e-06
7.4182926e-06
9.0252014e-06
5.0144369e-06
9.4114055e-07
1.0201595e-07
6.7321116e-08
6.5512432e-08
5.7124595e-08
6.3235225e-08
4.9158267e-08
8.3499838e-08
4.0213955e-08
6.0220082e-08
3.246705e-08
5.7348316e-08
3.8357745e-08
6.2482116e-08
2.8609489e-08
3.0055572e-08
8.7936923e-07
7.2694105e-06
6.8589649e-06
2.4006446e-06
2.5417316e-07
8.1170986e-08
6.7095359e-08
8.0348594e-08
6.5216462e-08
8.7450663e-08
5.6190024e-08
9.5121804e-08
3.8343209e-08
3.6247463e-08
1.9268846e-08
5.6046598e-08
5.0190893e-08
6.2359681e-08
3.6076738e-08
1.6979334e-08
3.5056107e-07
7.2435542e-06
6.0425667e-06
1.3754567e-06
1.1171381e-07
8.109194e-08
7.4630302e-08
7.7484614e-08
6.6867886e-08
7.9113537e-08
6.6053021e-08
6.4962338e-08
4.0772581e-08
2.9633601e-08
1.9100258e-08
2.6317062e-08
4.271484e-08
3.2740874e-08
2.5374125e-08
9.2968508e-08
1.444462e-06
7.0160018e-06
5.3239304e-06
9.8224358e-07
1.039551e-07
9.1990774e-08
8.6414467e-08
8.4606896e-08
8.5999255e-08
6.3875649e-08
6.8995052e-08
4.9994852e-08
3.6280057e-08
3.2927329e-08
3.5122489e-08
2.1814396e-08
4.0498955e-08
1.9980325e-08
3.6268195e-08
9.760713e-08
3.3557104e-06
6.6780064e-06
4.4635401e-06
7.9407964e-07
8.605261e-08
9.4225828e-08
8.7865733e-08
9.0780522e-08
8.6641879e-08
9.2302447e-08
6.1686476e-08
5.5931969e-08
3.2350343e-08
3.8126338e-08
4.4207733e-08
5.0944195e-08
3.5506115e-08
5.1161496e-08
6.1843501e-08
2.8636262e-08
1.4212559e-06
6.4012006e-06
3.8161205e-06
6.9353506e-07
9.1754192e-08
8.8164124e-08
8.0938392e-08
8.6160739e-08
8.2357983e-08
6.4857082e-08
7.0344833e-08
5.3729893e-08
5.4770633e-08
4.2646517e-08
6.7492848e-08
3.9899857e-08
5.2891387e-08
4.5597284e-08
4.050577e-08
5.1251876e-08
4.3371546e-07
5.6756101e-06
3.3448982e-06
5.9277924e-07
9.8058462e-08
1.085501e-07
9.2025605e-08
9.536743e-08
7.9541524e-08
7.4757495e-08
6.1754195e-08
1.0316136e-07
4.5327937e-08
5.3221985e-08
3.7448593e-08
4.8746282e-08
3.0520805e-08
5.4918411e-08
5.4459624e-08
8.4051247e-08
1.1614114e-06
5.1040843e-06
2.9799093e-06
5.6967074e-07
1.0374954e-07
1.1057272e-07
9.653239e-08
1.0992082e-07
7.8793429e-08
7.7205471e-08
7.7219966e-08
4.9894262e-08
7.5460438e-08
4.0617506e-08
5.0066031e-08
2.8861642e-08
4.7261279e-08
3.102146e-08
4.9495299e-08
5.8637819e-08
1.0571835e-06
4.8069291e-06
2.7607217e-06
5.2080097e-07
1.0648399e-07
1.1701593e-07
8.8029178e-08
1.1289354e-07
1.0073308e-07
7.9617901e-08
8.7483388e-08
6.5671758e-08
5.1391943e-08
5.7554554e-08
4.2876765e-08
5.36851e-08
6.5553246e-08
5.2082789e-08
5.1560047e-08
7.81685e-08
9.998134e-07
4.9188694e-06
2.6102125e-06
5.3760333e-07
1.0272988e-07
1.0714828e-07
1.0271761e-07
8.6127783e-08
1.1348939e-07
1.1393827e-07
8.2181551e-08
6.6413766e-08
5.3316422e-08
5.9869912e-08
7.0484412e-08
6.1221621e-08
8.3383723e-08
6.668439e-08
5.5587661e-08
9.5726013e-08
1.0961772e-06
5.2566864e-06
2.454773e-06
4.9214628e-07
1.2444899e-07
1.2429032e-07
1.2970639e-07
9.3560389e-08
9.9243806e-08
1.1543984e-07
8.5085409e-08
1.1281224e-07
7.9675121e-08
3.9260812e-08
6.7603529e-08
5.6505403e-08
8.6782016e-08
6.0688318e-08
7.6469554e-08
8.3472116e-08
9.9508118e-07
5.1745932e-06
2.3300418e-06
5.0167226e-07
1.3336325e-07
1.2854566e-07
1.3608653e-07
1.1341303e-07
1.1002148e-07
1.0570565e-07
1.0296764e-07
1.1897846e-07
8.5749567e-08
4.4793672e-08
9.7098923e-08
5.7135925e-08
6.6915043e-08
6.3248667e-08
6.9187201e-08
9.4794582e-08
1.1332496e-06
5.0732861e-06
2.1440956e-06
5.0199128e-07
1.3817999e-07
1.2573699e-07
1.3983832e-07
1.2948778e-07
1.3846116e-07
9.1380538e-08
8.6528113e-08
1.122564e-07
5.4069045e-08
9.5400192e-08
5.1396857e-08
7.5723906e-08
6.60873e-08
8.3472817e-08
8.2136578e-08
1.1628391e-07
9.4504926e-07
4.9639491e-06
1.9617966e-06
4.6975378e-07
1.4280011e-07
1.310917e-07
1.1195379e-07
1.2533693e-07
1.180594e-07
9.9839202e-08
1.029e-07
8.0849599e-08
8.1275158e-08
6.4049186e-08
8.2833166e-08
7.6388344e-08
8.4574617e-08
8.3293479e-08
7.8911007e-08
1.1177614e-07
1.0054694e-06
4.7898529e-06
1.7932092e-06
4.3546752e-07
1.5026565e-07
1.6574516e-07
1.2932128e-07
1.7301537e-07
9.9711063e-08
8.7160577e-08
1.0835403e-07
9.9630458e-08
7.0627602e-08
6.6848863e-08
1.0837729e-07
8.5200374e-08
9.1265813e-08
8.564783e-08
8.7405535e-08
1.0576077e-07
9.2907103e-07
4.5455489e-06
1.6276321e-06
4.2681398e-07
1.3193059e-07
1.4806215e-07
1.268705e-07
1.1744985e-07
1.0446316e-07
1.0200061e-07
9.2923753e-08
9.1804208e-08
1.0813496e-07
7.0817423e-08
7.3493997e-08
9.3121578e-08
1.0928418e-07
1.0525537e-07
1.0119793e-07
1.207987e-07
8.8124315e-07
4.2778561e-06
1.4899138e-06
3.9508893e-07
1.5734137e-07
1.3348494e-07
1.5340762e-07
1.4417352e-07
1.0670355e-07
7.0358279e-08
8.428543e-08
5.7325751e-08
7.9920603e-08
6.7180138e-08
9.1419318e-08
9.7679689e-08
9.9272415e-08
9.2993538e-08
9.7887766e-08
1.1996191e-07
6.8149395e-07
3.9706307e-06
1.349563e-06
3.750351e-07
1.3352048e-07
1.4016117e-07
1.1046504e-07
1.0299146e-07
8.8172334e-08
1.0209097e-07
9.6165484e-08
1.0125352e-07
6.1320879e-08
7.3786606e-08
1.2953533e-07
1.0725317e-07
1.2163229e-07
1.0118022e-07
1.1401877e-07
1.2844462e-07
8.0747155e-07
3.653311e-06
1.2115943e-06
3.5167883e-07
1.3976031e-07
1.3239276e-07
1.4808095e-07
1.185461e-07
1.4440147e-07
1.5381992e-07
1.0428754e-07
1.3677461e-07
7.5572439e-08
1.2236083e-07
1.1220983e-07
1.3630659e-07
1.1961545e-07
1.2662699e-07
1.2119472e-07
1.4936483e-07
7.0956074e-07
3.3039844e-06
1.0962086e-06
3.3527665e-07
1.5450569e-07
1.4817043e-07
1.4533712e-07
1.1357041e-07
1.1838685e-07
1.8889925e-07
1.2662836e-07
8.7735298e-08
8.3827345e-08
1.052039e-07
1.2274281e-07
1.3024865e-07
1.2651442e-07
1.1873176e-07
1.2283393e-07
1.3516118e-07
5.8778651e-07
2.953328e-06
9.7374718e-07
3.0319617e-07
1.6465227e-07
1.5866095e-07
1.574083e-07
1.8096603e-07
1.1951665e-07
1.7554078e-07
1.0084122e-07
1.0706808e-07
1.3552246e-07
1.424892e-07
1.4655975e-07
1.3705991e-07
1.4467189e-07
1.3421208e-07
1.3754303e-07
1.6037463e-07
5.1281303e-07
2.626327e-06
8.5791654e-07
2.8472014e-07
1.7405755e-07
1.6081173e-07
1.6857141e-07
1.6013366e-07
1.4307663e-07
1.7028467e-07
1.3303248e-07
1.3805515e-07
1.4399696e-07
1.3448541e-07
1.4964114e-07
1.4407783e-07
1.4502315e-07
1.3847481e-07
1.4088834e-07
1.6401742e-07
5.1339037e-07
2.2928378e-06
7.4852961e-07
2.6198492e-07
1.6724649e-07
1.7620282e-07
1.5203359e-07
1.4874559e-07
1.4942489e-07
1.4600364e-07
1.6596386e-07
1.3485655e-07
1.6760161e-07
1.467526e-07
1.489723e-07
1.5895121e-07
1.4368162e-07
1.5175967e-07
1.4392101e-07
1.7124111e-07
4.5883982e-07
1.985078e-06
6.3596682e-07
2.3081247e-07
1.5056602e-07
1.5595068e-07
1.5205623e-07
1.5264447e-07
1.4055744e-07
2.0794543e-07
1.3583124e-07
1.4436378e-07
1.7155766e-07
1.6021123e-07
1.5783564e-07
1.5574241e-07
1.5371996e-07
1.474951e-07
1.5254154e-07
1.7041515e-07
3.8331709e-07
1.7064023e-06
5.3763896e-07
2.1207221e-07
1.5474432e-07
1.646815e-07
1.4846349e-07
1.6870556e-07
1.5199945e-07
1.3877249e-07
1.859256e-07
1.5929206e-07
1.6894302e-07
1.6738624e-07
1.6228681e-07
1.588223e-07
1.553785e-07
1.5525365e-07
1.517892e-07
1.7125511e-07
3.3500873e-07
1.4734531e-06
4.3851947e-07
1.8609055e-07
1.7520716e-07
1.6651605e-07
1.6108148e-07
1.7054473e-07
1.6903261e-07
1.668471e-07
1.7750637e-07
1.7216136e-07
1.650354e-07
1.7404278e-07
1.6848046e-07
1.6244405e-07
1.6597199e-07
1.563019e-07
1.6392996e-07
1.7873796e-07
3.1638523e-07
1.1911102e-06
3.6086269e-07
1.6231729e-07
1.7457346e-07
1.6751464e-07
1.7153148e-07
1.7137728e-07
1.7043476e-07
1.6987434e-07
1.7106891e-07
1.7171135e-07
1.6448861e-07
1.7744333e-07
1.6193726e-07
1.7542699e-07
1.556703e-07
1.6479163e-07
1.5484629e-07
1.6930688e-07
2.7938552e-07
1.0434068e-06
2.6374221e-07
1.3590376e-07
1.7918969e-07
1.7889683e-07
1.7919623e-07
1.8137468e-07
1.7763843e-07
1.7786093e-07
1.7768147e-07
1.7775119e-07
1.7543651e-07
1.7649833e-07
1.7669384e-07
1.68566e-07
1.7224483e-07
1.6670063e-07
1.6473006e-07
1.699337e-07
1.8420607e-07
8.0732368e-07
1.7393773e-05
7.336129e-06
3.7593966e-06
5.7845447e-07
9.2232575e-08
5.8008939e-08
4.9849866e-08
6.4224348e-08
5.6800847e-08
7.9794324e-08
5.4535407e-08
9.2382855e-08
7.2921223e-08
6.2807774e-08
5.1638791e-08
6.4811926e-08
6.509867e-08
1.2177735e-07
1.5902526e-06
7.0221508e-06
1.3824187e-05
7.3459888e-06
1.9542121e-06
1.9120852e-07
6.0220234e-08
4.5644101e-08
5.0968602e-08
5.2435738e-08
5.3466075e-08
6.0754895e-08
6.0739826e-08
1.0311775e-07
3.4608398e-08
8.8767801e-08
3.5403369e-08
6.890503e-08
3.4735905e-08
3.2719374e-08
1.9394929e-06
7.3538577e-06
9.0233782e-06
4.5431357e-06
8.6243238e-07
9.4275413e-08
6.4464729e-08
5.570945e-08
5.8562939e-08
5.7811027e-08
5.1228377e-08
6.5232143e-08
3.7149215e-08
3.8228335e-08
2.6013574e-08
1.5174085e-07
3.1907572e-08
6.698167e-08
2.797825e-08
1.1427473e-08
9.5726069e-07
7.4353443e-06
6.8604326e-06
2.4735486e-06
2.7943878e-07
8.1044619e-08
6.5197654e-08
7.6238574e-08
6.1254041e-08
7.8662294e-08
5.679723e-08
8.8134175e-08
2.3906346e-08
2.916291e-08
2.9429498e-08
3.8763392e-08
3.8276847e-08
3.5371672e-08
2.6783489e-08
4.4788712e-08
6.4814494e-07
7.1867617e-06
5.9763716e-06
1.2226029e-06
1.2093676e-07
7.7486906e-08
7.3203361e-08
7.7171922e-08
6.2929984e-08
7.2482435e-08
6.7783686e-08
4.9732443e-08
3.6367171e-08
2.9911108e-08
4.1636224e-08
4.2784606e-08
5.7124137e-08
2.0091236e-08
1.546177e-08
3.367316e-08
9.6479964e-07
7.2623015e-06
5.4704943e-06
1.0463136e-06
9.0897087e-08
8.4234003e-08
7.2594812e-08
7.1255072e-08
8.1697057e-08
6.0316255e-08
6.6626971e-08
5.5643342e-08
5.9862591e-08
4.441535e-08
2.6580284e-08
6.2209846e-08
2.6813398e-08
5.0050119e-08
3.5717517e-08
3.4910089e-08
1.1778987e-06
6.8043211e-06
4.6393638e-06
8.1889033e-07
8.475129e-08
8.8545099e-08
8.6588245e-08
8.6089004e-08
1.0697133e-07
7.1906833e-08
7.1756104e-08
5.7795512e-08
4.1753594e-08
4.4362e-08
6.9222067e-08
2.9890858e-08
4.1410711e-08
3.9222298e-08
4.2764249e-08
6.7285123e-08
2.2094864e-06
6.4079435e-06
4.032617e-06
7.1825862e-07
9.1560813e-08
8.5413057e-08
8.1611184e-08
8.6553848e-08
8.8859831e-08
8.5154003e-08
6.7407587e-08
7.4831373e-08
7.1242519e-08
3.7540472e-08
4.7628239e-08
5.5035892e-08
9.0921826e-08
4.233013e-08
6.0083002e-08
5.6548957e-08
1.2199065e-06
5.9948625e-06
3.5189541e-06
6.4362743e-07
9.0750207e-08
9.8009073e-08
8.5912144e-08
9.0100568e-08
7.6638941e-08
8.2032392e-08
8.2156718e-08
5.6831659e-08
7.8364406e-08
5.339121e-08
3.578492e-08
4.7407168e-08
5.1019369e-08
4.9006147e-08
5.2707187e-08
7.6721089e-08
1.3661559e-06
5.365665e-06
3.156443e-06
6.2133717e-07
1.0594562e-07
1.0474757e-07
9.6654186e-08
9.8674901e-08
8.6621026e-08
7.7452065e-08
8.0547856e-08
6.230368e-08
6.3568872e-08
5.6509282e-08
3.9670976e-08
4.773931e-08
3.9706155e-08
5.1048582e-08
4.4972526e-08
6.1713602e-08
1.0856933e-06
5.1549812e-06
2.9142598e-06
5.3830308e-07
1.0582919e-07
1.1573638e-07
9.8940631e-08
1.0671876e-07
9.8251784e-08
8.2787097e-08
8.8457874e-08
6.6245252e-08
4.8967294e-08
9.3163425e-08
5.0940206e-08
5.5465345e-08
7.3684415e-08
4.317902e-08
5.0703814e-08
7.1828582e-08
9.832919e-07
5.2203692e-06
2.7569919e-06
5.6430066e-07
1.0920566e-07
1.1484009e-07
9.3627715e-08
1.0550637e-07
1.1726635e-07
1.0307996e-07
8.2750816e-08
9.6935216e-08
4.4284142e-08
5.5652779e-08
6.9477516e-08
5.3133927e-08
7.1648885e-08
5.1673451e-08
5.3791814e-08
8.6935624e-08
9.3192029e-07
5.5302184e-06
2.5820091e-06
5.6785719e-07
1.2123463e-07
1.1447783e-07
1.1226537e-07
9.9387181e-08
1.1411382e-07
1.105792e-07
9.6831576e-08
8.8168509e-08
5.1455613e-08
5.5047255e-08
6.3779956e-08
5.3750939e-08
7.4584841e-08
6.0696377e-08
6.4592914e-08
8.8708208e-08
1.1587974e-06
5.4005493e-06
2.4257776e-06
5.4112467e-07
1.4060122e-07
1.2203707e-07
1.3448096e-07
1.1194576e-07
1.146106e-07
1.0587806e-07
1.1374238e-07
1.2538016e-07
8.2411405e-08
4.9836388e-08
5.6538404e-08
6.0128235e-08
8.1487235e-08
8.5631889e-08
7.5704481e-08
8.8912923e-08
1.0295887e-06
5.2269144e-06
2.2559155e-06
5.2151481e-07
1.4000539e-07
1.2627452e-07
1.2336738e-07
1.2073077e-07
1.0667864e-07
9.5691644e-08
8.7206461e-08
6.9885236e-08
8.0941648e-08
5.3900151e-08
6.6920169e-08
8.2658092e-08
7.6298108e-08
8.0293111e-08
7.4927139e-08
1.0727129e-07
9.1595759e-07
5.1534494e-06
2.0555378e-06
5.0637483e-07
1.5236154e-07
1.2828026e-07
1.2494104e-07
1.1003831e-07
8.1832383e-08
6.756104e-08
1.3174222e-07
5.5281477e-08
1.0386872e-07
7.8658686e-08
7.8697031e-08
8.8325826e-08
7.6317561e-08
7.4522177e-08
7.5081196e-08
1.1040266e-07
1.0093707e-06
4.965026e-06
1.8765192e-06
4.7772823e-07
1.5331019e-07
1.3300357e-07
1.4230402e-07
6.6372212e-08
1.1885934e-07
4.4875269e-08
1.0149637e-07
5.2005191e-08
8.792671e-08
7.5675772e-08
7.1262616e-08
9.4350761e-08
1.0887626e-07
8.2756727e-08
9.1688475e-08
1.0407268e-07
1.0243622e-06
4.6891447e-06
1.7121791e-06
4.4592034e-07
1.2668134e-07
1.4364672e-07
1.1740288e-07
1.4648506e-07
1.025793e-07
7.8003381e-08
6.7479375e-08
7.8120398e-08
9.7918937e-08
5.9964171e-08
1.0284791e-07
9.2764618e-08
1.1190998e-07
8.4202853e-08
1.0219867e-07
1.1398964e-07
9.0164642e-07
4.4159945e-06
1.5480338e-06
4.2565446e-07
1.4734177e-07
1.4992947e-07
1.3203931e-07
1.2873673e-07
9.7216947e-08
1.1865299e-07
6.4893639e-08
8.4820616e-08
9.660558e-08
6.2962285e-08
8.8742289e-08
1.0927968e-07
9.5368634e-08
1.0208685e-07
9.4009376e-08
1.0565767e-07
6.9002076e-07
4.1079362e-06
1.41751e-06
4.0303316e-07
1.371214e-07
1.2824803e-07
1.343901e-07
1.0520523e-07
8.563001e-08
8.5763535e-08
6.8586316e-08
9.5900792e-08
7.1767396e-08
8.9684465e-08
1.1460059e-07
1.2960103e-07
1.1522719e-07
1.1071249e-07
1.098751e-07
1.3632352e-07
8.4539583e-07
3.750458e-06
1.2742046e-06
3.7709541e-07
1.4137225e-07
1.1624062e-07
1.082e-07
2.1906359e-07
8.3759603e-08
1.4743372e-07
6.9944947e-08
1.21849e-07
8.4227578e-08
1.0362545e-07
1.0967855e-07
1.1974821e-07
1.0594099e-07
1.2213598e-07
1.0511194e-07
1.3866052e-07
6.5910167e-07
3.3857083e-06
1.15282e-06
3.5276043e-07
1.5932073e-07
1.4810507e-07
1.4937646e-07
1.4585968e-07
8.6949278e-08
1.7904346e-07
9.4436753e-08
1.9742335e-07
1.0031228e-07
1.023149e-07
1.4131358e-07
1.1953089e-07
1.3972541e-07
1.1364081e-07
1.2411921e-07
1.3997207e-07
6.6128966e-07
3.0424194e-06
1.0209596e-06
3.299434e-07
1.6324613e-07
1.4878284e-07
1.6892241e-07
1.2047062e-07
1.4735517e-07
1.4209192e-07
1.0377871e-07
1.0810061e-07
1.6445097e-07
1.3196962e-07
1.2729099e-07
1.5229576e-07
1.2595224e-07
1.3879566e-07
1.3008119e-07
1.5628047e-07
5.0506947e-07
2.7075484e-06
9.0409669e-07
3.0374128e-07
1.6903276e-07
1.5552069e-07
1.7432908e-07
1.5333739e-07
1.4833459e-07
1.1442521e-07
1.4382311e-07
1.0254575e-07
1.2456537e-07
1.3288336e-07
1.4708425e-07
1.3633679e-07
1.4414094e-07
1.3591095e-07
1.367091e-07
1.533857e-07
5.3523499e-07
2.36906e-06
7.9181356e-07
2.7303472e-07
1.7633263e-07
1.7707627e-07
1.6540861e-07
1.8252451e-07
1.6090188e-07
1.6737827e-07
1.4895118e-07
1.3057091e-07
1.6758902e-07
1.5568169e-07
1.518892e-07
1.5047373e-07
1.4513842e-07
1.46675e-07
1.3845516e-07
1.6669364e-07
4.4930651e-07
2.0585047e-06
6.79461e-07
2.533971e-07
1.848999e-07
1.6298982e-07
1.8605545e-07
1.4637823e-07
1.8926077e-07
1.1248829e-07
1.3850675e-07
1.1591538e-07
1.7068212e-07
1.654778e-07
1.545015e-07
1.5604195e-07
1.5382404e-07
1.5004856e-07
1.5247706e-07
1.7095954e-07
4.1231964e-07
1.7750235e-06
5.7912809e-07
2.269212e-07
1.8341143e-07
1.630349e-07
1.9259974e-07
1.4845756e-07
1.6537945e-07
1.3133219e-07
1.4160224e-07
1.5591433e-07
1.6912301e-07
1.6742711e-07
1.5756487e-07
1.5477251e-07
1.5640023e-07
1.4870644e-07
1.4808794e-07
1.7000018e-07
3.7394704e-07
1.5369308e-06
4.7824312e-07
2.0109526e-07
1.7831355e-07
1.7650161e-07
1.6072693e-07
1.6865959e-07
1.9253544e-07
1.5562554e-07
1.8115816e-07
1.7792758e-07
1.7261306e-07
1.7850323e-07
1.6568641e-07
1.6731341e-07
1.619485e-07
1.596598e-07
1.5876303e-07
1.766338e-07
3.1265258e-07
1.2535842e-06
3.9971707e-07
1.7657865e-07
1.8439746e-07
1.7750332e-07
1.8316068e-07
1.7742903e-07
1.8098373e-07
1.7434307e-07
1.7472732e-07
1.7780877e-07
1.6796497e-07
1.7558178e-07
1.6010401e-07
1.6648331e-07
1.5730651e-07
1.5795489e-07
1.547156e-07
1.677267e-07
2.8437762e-07
1.0935558e-06
2.9931882e-07
1.489188e-07
1.8457326e-07
1.8293962e-07
1.8675378e-07
1.7374673e-07
1.8907017e-07
1.8089575e-07
1.8267882e-07
1.8223193e-07
1.7739658e-07
1.7710879e-07
1.7434351e-07
1.7724869e-07
1.7293242e-07
1.7416862e-07
1.7199153e-07
1.8519532e-07
1.9924565e-07
9.027278e-07
1.7167576e-05
6.8190205e-06
3.7631979e-06
5.3172838e-07
8.7466296e-08
5.7530052e-08
4.7484543e-08
6.8101462e-08
5.41586e-08
9.1374125e-08
5.6536944e-08
1.0003274e-07
6.8074107e-08
8.3572546e-08
8.5023049e-08
6.9458974e-08
4.4213335e-08
1.6940357e-07
3.8780174e-07
7.2263804e-06
1.4049943e-05
7.1633549e-06
1.6399344e-06
1.6886062e-07
5.922825e-08
4.615609e-08
5.0919956e-08
5.1114404e-08
5.2840541e-08
6.4045956e-08
5.6652874e-08
7.0608612e-08
8.2034912e-08
5.6658882e-08
4.9035215e-08
6.1327661e-08
2.3417325e-08
1.1921796e-07
7.7443845e-06
7.4035875e-06
9.0658143e-06
4.5960563e-06
8.185401e-07
9.5200265e-08
6.2262093e-08
5.8390878e-08
5.7049645e-08
6.4720618e-08
5.2105703e-08
7.3946201e-08
4.176362e-08
6.0275504e-08
3.0505645e-08
5.8639271e-08
2.9032557e-08
6.9958652e-08
3.5868084e-08
3.8914186e-08
2.2648908e-06
7.0351376e-06
6.9086275e-06
2.3329305e-06
2.2955549e-07
7.6692214e-08
6.6103672e-08
7.6771833e-08
6.10871e-08
8.8020727e-08
5.1207788e-08
7.99378e-08
4.3755737e-08
3.4855148e-08
1.5699523e-08
4.8930059e-08
2.7022621e-08
4.1447242e-08
3.0115612e-08
1.8390088e-08
3.6644018e-06
7.1978782e-06
6.1671367e-06
1.5701797e-06
1.2233365e-07
7.5883354e-08
7.0273168e-08
7.5556112e-08
6.1317748e-08
6.7957236e-08
7.5943611e-08
5.8311148e-08
4.1329786e-08
2.0643542e-08
1.7885629e-08
2.2291358e-08
2.5596441e-08
3.0001088e-08
4.1881573e-08
3.9140915e-07
3.3858355e-06
7.1554875e-06
5.5452827e-06
1.0089137e-06
9.4394662e-08
8.5992515e-08
7.8018422e-08
8.0718619e-08
7.4115855e-08
5.6876859e-08
6.6864193e-08
4.9290536e-08
3.685636e-08
5.6897124e-08
3.6640348e-08
2.4413594e-08
4.3026183e-08
3.0659043e-08
4.1898908e-08
1.1609725e-07
2.7341615e-06
6.8970759e-06
4.8403918e-06
8.3045136e-07
8.4387169e-08
8.6775641e-08
8.6889997e-08
8.0611307e-08
9.0345892e-08
7.8692114e-08
7.8422056e-08
4.8380681e-08
4.5443956e-08
3.0588109e-08
3.0793714e-08
2.5381964e-08
4.5455443e-08
3.1005509e-08
4.2771873e-08
7.6919673e-08
1.3961517e-06
6.6582689e-06
4.2875678e-06
7.5122021e-07
9.4098044e-08
8.688249e-08
8.8347141e-08
8.8397548e-08
7.8243562e-08
6.443574e-08
6.4543566e-08
6.037509e-08
3.7699267e-08
4.0986765e-08
6.3343731e-08
2.5701565e-08
3.5213941e-08
3.3833154e-08
6.2187332e-08
4.489446e-08
1.2388924e-06
6.1262412e-06
3.7725255e-06
6.6795889e-07
9.5169003e-08
9.4023135e-08
8.79946e-08
8.8229513e-08
8.8347218e-08
6.4662625e-08
5.7954442e-08
4.6781368e-08
4.4905362e-08
5.6524647e-08
4.3227569e-08
3.5325777e-08
4.9009146e-08
5.5264516e-08
4.3774509e-08
6.7996079e-08
7.3632352e-07
5.6132036e-06
3.410663e-06
6.5450844e-07
9.7891622e-08
1.0918337e-07
9.6203756e-08
1.0245959e-07
8.256572e-08
9.168768e-08
5.5396914e-08
1.0903484e-07
6.1185959e-08
5.5963045e-08
5.3765864e-08
6.5186657e-08
4.9709796e-08
6.0076755e-08
5.0448352e-08
7.6252072e-08
1.1562923e-06
5.3744881e-06
3.1459758e-06
6.0643134e-07
1.035445e-07
1.1405811e-07
9.462707e-08
1.072509e-07
1.1758751e-07
7.2911675e-08
1.0880217e-07
8.6756599e-08
5.2331226e-08
7.325999e-08
4.632188e-08
6.7682467e-08
6.4513942e-08
4.9109122e-08
6.3435173e-08
7.0679119e-08
1.3815695e-06
5.6056955e-06
2.9531478e-06
5.9496247e-07
1.1395022e-07
1.231174e-07
1.0376722e-07
9.0505658e-08
1.2755778e-07
8.9325046e-08
9.5475819e-08
8.3744292e-08
7.8732882e-08
6.307229e-08
4.2964043e-08
5.8459179e-08
7.3264847e-08
5.3145028e-08
6.7982537e-08
7.4919427e-08
9.8646758e-07
5.8600408e-06
2.7680424e-06
5.8519798e-07
1.2020356e-07
1.2790699e-07
1.2152326e-07
9.3846216e-08
1.1409857e-07
9.7404123e-08
1.2048062e-07
8.6748064e-08
8.215304e-08
6.2149539e-08
5.3994947e-08
6.2651751e-08
8.4514336e-08
6.2838209e-08
6.8830428e-08
9.7437351e-08
1.0293697e-06
5.6539285e-06
2.617201e-06
5.7147023e-07
1.1922028e-07
1.3436727e-07
1.3841188e-07
1.0615764e-07
1.2402923e-07
9.3401168e-08
1.0793347e-07
7.7172242e-08
8.1805873e-08
4.8900579e-08
6.169158e-08
9.0891215e-08
6.9168779e-08
6.6594419e-08
6.6170875e-08
1.0555502e-07
1.1219149e-06
5.5837119e-06
2.4272263e-06
5.5570059e-07
1.2643181e-07
1.2303098e-07
1.3187675e-07
1.3059788e-07
1.3092731e-07
1.2114487e-07
1.1393586e-07
6.3689691e-08
8.7635264e-08
6.470703e-08
6.4845849e-08
9.1251228e-08
7.9780023e-08
9.0000454e-08