/*--------------------------------*- C++ -*----------------------------------*\
| =========                 |                                                 |
| \\      /  F ield         | OpenFOAM: The Open Source CFD Toolbox           |
|  \\    /   O peration     | Version:  1.7.x                                 |
|   \\  /    A nd           | Web:      www.OpenFOAM.com                      |
|    \\/     M anipulation  |                                                 |
\*---------------------------------------------------------------------------*/
FoamFile
{
    version     2.0;
    format      ascii;
    class       volScalarField;
    location    "0.003";
    object      H2O;
}
// * * * * * * * * * * * * * * * * * * * * * * * * * * * * * * * * * * * * * //

dimensions      [0 0 0 0 0 0 0];

internalField   nonuniform List<scalar> 
206988
(
9.6625437e-119
9.5255378e-117
1.5384766e-116
2.2304966e-116
4.0987098e-116
4.0593396e-116
2.7232729e-116
2.4466787e-116
2.1655105e-116
2.8325361e-116
4.2511671e-116
1.2205405e-116
0
8.4764653e-116
8.3798457e-117
3.9264956e-116
9.0144839e-116
8.40628e-117
4.3849334e-118
2.8620479e-119
2.3260298e-119
8.0716169e-118
1.4807844e-117
2.5536553e-117
4.8913462e-117
3.970665e-117
4.0259701e-117
3.9823856e-117
4.5459894e-117
1.1385974e-116
2.0123157e-116
3.7503895e-117
8.2230109e-118
9.6934418e-116
9.1294351e-116
4.4370334e-116
6.2652835e-116
6.7932817e-117
8.1164624e-118
8.5777018e-119
4.3458033e-120
4.3187102e-119
7.1335559e-119
1.227713e-118
2.7494026e-118
4.4901286e-118
4.8411088e-118
3.881301e-118
7.3142843e-118
3.4818127e-117
6.2383633e-117
1.0770293e-117
3.8937347e-118
3.2673765e-116
3.296501e-116
1.6594969e-116
1.8773327e-116
1.7616985e-117
6.8176919e-118
4.0257598e-119
4.6322991e-121
2.2464281e-120
3.5762023e-120
5.6622343e-120
1.3278543e-119
3.0099873e-119
4.9267804e-119
5.2912882e-119
9.0995677e-119
1.0649616e-117
1.4843678e-117
3.3837169e-118
2.0383122e-118
7.5359268e-117
7.1878297e-117
4.2327203e-117
3.1860619e-117
3.5149719e-118
4.0789797e-118
2.8619426e-119
3.9269618e-122
1.5098795e-121
2.2552578e-121
2.7219675e-121
7.5326545e-121
3.830038e-120
5.5767083e-120
8.5617017e-120
1.0960323e-119
2.2697906e-118
3.0158399e-118
1.0230042e-118
4.9312408e-119
1.2225787e-117
1.2642971e-117
7.9199931e-118
6.3448202e-118
8.2302781e-119
1.4569385e-118
7.7378245e-120
2.9880636e-123
9.3744244e-123
7.3186114e-122
1.7374683e-121
6.7492769e-122
5.3691411e-121
7.2490352e-121
1.2399029e-120
5.469651e-120
6.8911875e-119
4.0108626e-119
3.1760338e-119
2.9901146e-119
2.1317955e-118
4.3573332e-118
3.5629805e-118
1.2332012e-118
2.0623678e-119
3.8056267e-119
1.8080058e-120
3.1179238e-124
1.4046018e-123
2.1432653e-122
6.4268325e-122
1.0463515e-122
6.1112025e-122
7.6104551e-122
1.6970935e-121
2.0077947e-120
4.0695161e-119
1.3093596e-119
1.4177341e-119
5.3193885e-119
5.0959799e-119
2.4058132e-118
1.8371394e-118
3.4526871e-119
6.5713549e-120
8.3835746e-120
3.6586804e-121
4.4824903e-125
2.7535132e-124
3.0561607e-123
9.6877953e-123
3.2913985e-123
8.992449e-123
4.3546828e-122
6.5908237e-121
1.1815973e-120
1.4112816e-119
7.7470948e-120
5.1716855e-120
2.1151321e-119
2.129185e-119
8.6843791e-119
6.126642e-119
9.9686529e-120
1.8632489e-120
1.2388295e-120
8.6493635e-122
1.1819463e-125
4.7213166e-125
3.1294582e-124
9.0144447e-124
7.2121898e-124
1.0146953e-122
2.6940017e-121
3.2362181e-121
8.0540898e-121
2.1825853e-120
1.9847735e-120
1.406743e-120
4.9588863e-120
3.9768827e-120
1.9776623e-119
1.1836716e-119
2.2636292e-120
3.4839421e-121
3.1095939e-121
2.4346028e-122
1.6392369e-126
7.7026884e-126
2.9437614e-125
6.261412e-125
1.1973189e-124
2.9443536e-123
7.6772422e-122
7.1040607e-122
2.1340481e-121
3.1927221e-121
3.5309774e-121
3.3189306e-121
1.0406417e-120
7.0936875e-121
2.4699559e-120
1.554891e-120
4.2532458e-121
6.7581889e-122
5.3872928e-122
6.6498569e-123
1.5752574e-127
1.0942838e-126
3.6771761e-126
5.999539e-126
1.7890734e-125
4.0896773e-124
1.0899481e-122
1.0279277e-122
3.3407759e-122
3.5763133e-122
5.1360771e-122
4.6679386e-122
1.8293505e-121
1.115693e-121
2.2235425e-121
1.6883388e-121
6.33536e-122
9.5608635e-123
1.5604353e-122
1.3634737e-123
1.430241e-128
1.1664444e-127
4.0811395e-127
1.3160038e-126
2.6793694e-126
6.1495692e-125
1.1741221e-123
1.127543e-123
2.905003e-123
1.9644977e-123
3.5081737e-123
6.3730012e-123
2.0879713e-122
1.4034843e-122
1.443256e-122
8.421652e-123
5.51617e-123
1.41555e-123
2.7396809e-123
1.9936199e-124
4.5827347e-129
2.801561e-128
2.2753968e-127
4.7692157e-127
4.3357073e-127
8.802326e-126
1.2000233e-124
1.4943994e-124
5.4240625e-124
1.3832242e-124
2.0187926e-124
5.8462139e-124
2.2846082e-123
1.9700294e-123
9.4640593e-124
5.9881366e-124
6.7946304e-124
3.33369e-124
5.9127127e-124
5.6071267e-125
1.3926657e-129
1.0717539e-128
1.4328256e-127
2.7635528e-127
3.6760143e-127
2.6413676e-126
2.8051785e-125
2.9455044e-125
9.7406045e-125
1.3827794e-125
1.7019616e-125
2.3244331e-125
1.2282741e-124
2.9438294e-124
9.4721241e-125
9.2758334e-125
8.1825929e-125
7.8267415e-125
1.0357413e-124
2.8220986e-125
3.6821833e-130
4.5025969e-129
4.2785546e-128
1.475853e-127
5.5136722e-127
1.3278785e-126
1.5573139e-125
1.277993e-125
1.4814642e-125
2.1671245e-126
3.8243612e-126
1.850231e-126
1.1973316e-125
2.4077152e-125
1.5098184e-125
2.2027919e-125
1.061936e-125
1.3690123e-125
1.489418e-125
1.4045679e-125
2.8171626e-130
2.0226481e-129
6.3958227e-129
4.1983113e-128
3.3096452e-127
5.7864527e-127
6.3380407e-126
5.6562841e-126
1.6736371e-126
8.7732701e-127
2.3886065e-126
1.7005797e-126
1.277757e-126
2.6880832e-126
5.1734886e-126
6.0307683e-126
1.5306035e-126
2.2180197e-126
1.5256559e-126
5.1996618e-126
1.2448947e-130
4.2971602e-130
1.1199262e-129
6.8549039e-129
7.509709e-128
1.5052059e-127
1.8366055e-126
1.9543496e-126
5.9641673e-127
5.620744e-127
1.1286022e-126
1.6173712e-126
6.7919288e-127
2.9062914e-126
2.4143592e-125
2.5917687e-126
4.7525711e-127
4.3953802e-127
2.1499697e-127
1.4431354e-126
2.3650162e-131
8.778849e-131
4.5497135e-130
8.8227614e-130
1.0864728e-128
3.3402022e-128
4.139013e-127
5.6864789e-127
8.9682245e-127
2.5031335e-127
3.6585474e-127
9.6784083e-127
5.6392902e-127
3.3119768e-126
2.9789816e-125
1.1944217e-126
2.2520492e-127
1.1554874e-127
3.9983746e-128
3.3158175e-127
5.396281e-132
3.700343e-131
5.4091464e-130
5.6803323e-130
2.3132044e-129
5.1018968e-128
7.4190511e-127
1.5133544e-127
5.7188948e-127
1.1639268e-127
2.4849087e-127
1.7665584e-126
2.5666938e-126
2.2454635e-126
2.0654931e-125
6.6471899e-127
1.1387209e-127
1.3516962e-127
1.9536417e-128
6.1792039e-128
6.7275453e-132
1.1267578e-130
6.0692665e-129
2.0661524e-129
5.2286554e-129
1.3783145e-127
4.0908026e-127
1.7728065e-127
2.0527025e-127
4.5774302e-128
2.3601873e-127
3.5032751e-126
2.032677e-125
1.3609601e-126
8.2142655e-126
4.8249277e-127
8.1112574e-128
2.609384e-127
6.5357447e-128
1.2633072e-128
2.1649484e-130
7.5049295e-129
1.3969726e-127
1.2429003e-128
9.2032484e-128
2.1493704e-127
1.0822953e-127
9.9679e-128
2.3616215e-127
1.1577168e-127
4.0570057e-127
3.8322267e-126
3.1316806e-125
2.5275941e-126
2.4222979e-126
1.938351e-127
4.8048672e-128
2.4067395e-127
6.6900891e-128
3.9138313e-129
1.2679048e-130
4.2528951e-129
9.575051e-128
1.8873702e-127
2.0799074e-126
2.7527182e-126
3.1427933e-128
3.0976411e-128
2.0089147e-127
1.5400031e-126
3.9824597e-126
2.2246212e-126
2.0241779e-125
3.3262285e-126
2.2629426e-126
8.4157427e-128
1.6502855e-128
1.0558082e-127
3.3260382e-128
1.2110052e-129
3.7415922e-131
1.0212237e-129
2.0063983e-128
8.3705341e-128
1.0293332e-126
1.289205e-126
3.7008273e-128
1.7121192e-128
1.9806271e-127
2.7206291e-126
4.6849162e-126
5.6775894e-127
6.8483813e-126
2.2986844e-126
1.6914155e-126
4.9231152e-128
1.1559669e-128
3.6986142e-128
9.5534184e-129
3.9927181e-130
7.1944207e-132
1.6938141e-130
3.212297e-129
1.476646e-128
1.3039867e-127
1.6670175e-127
4.515788e-128
9.4756591e-128
9.5411068e-128
1.1924387e-126
2.0136996e-126
1.5917078e-127
1.4155022e-126
9.0812652e-127
7.0773675e-127
1.8500689e-128
7.4402465e-129
1.2529861e-128
1.7757438e-129
1.1347851e-130
7.3589624e-133
1.5142894e-131
2.4276653e-130
1.0648544e-129
1.0718171e-128
1.4503693e-128
1.8536046e-128
4.260281e-128
1.6394047e-128
2.6130356e-127
4.4682873e-127
2.4799794e-128
1.3166123e-127
1.9930194e-127
1.2309805e-127
5.7278344e-129
6.8159846e-129
4.7565845e-129
3.5688053e-130
3.0188538e-131
1.1632786e-133
2.4155834e-132
1.9530839e-131
6.0582364e-131
6.2017451e-130
1.5291025e-129
3.8217047e-129
8.9389468e-129
3.4038063e-129
3.6121267e-128
7.4719744e-128
7.3174466e-129
1.3927667e-128
3.7742922e-128
2.1087773e-128
1.5205136e-129
3.6538627e-129
1.3114298e-129
5.7384352e-131
6.9840922e-132
3.0633924e-133
1.2419723e-132
3.9367576e-132
9.026271e-132
1.1264857e-130
1.0879424e-130
6.756176e-130
3.4922534e-129
1.1089297e-128
2.2313706e-128
4.8874153e-128
2.2989672e-129
2.7375361e-129
6.4468e-129
3.3179458e-129
3.7091561e-130
1.3919971e-129
2.6042358e-130
9.5640744e-132
1.3124194e-132
6.3048653e-134
3.7810291e-133
1.7686421e-132
4.5462966e-131
6.5528543e-130
6.9928689e-130
1.1631109e-130
2.279403e-129
2.9920461e-128
6.4932409e-129
1.3870875e-128
4.5302377e-130
4.2155966e-130
1.0047727e-129
5.528404e-130
6.2547176e-131
2.5423816e-130
3.0914614e-131
1.8836076e-132
1.9604577e-133
2.5945439e-133
1.3762468e-132
2.028473e-132
7.0682596e-131
1.2299479e-129
1.0156086e-129
2.2383445e-130
4.6768486e-129
3.9172107e-128
4.9243331e-129
2.6278646e-129
2.834893e-130
4.2127921e-130
1.0681963e-129
9.7377534e-130
1.3023586e-130
3.3060752e-131
4.6786772e-132
4.4433068e-133
3.8548331e-134
1.8820585e-133
4.3139948e-133
3.8329438e-133
1.9279556e-131
4.2602957e-130
6.5227967e-130
1.5387385e-130
1.2178872e-129
7.6393794e-129
7.3810906e-130
3.1923365e-130
1.242091e-130
3.3775196e-130
2.0454424e-129
1.5810253e-129
1.3249852e-130
2.7250405e-131
7.7018489e-132
3.7548248e-133
2.3147562e-134
8.673788e-118
1.417827e-116
4.0875881e-116
1.2435268e-115
1.7652283e-115
6.90931e-115
1.3887205e-114
2.8476517e-115
1.3443293e-116
9.9457452e-116
3.9616682e-115
1.0923418e-115
3.3415214e-116
2.2820664e-115
1.3687823e-114
4.6616458e-115
5.1391166e-115
6.0905394e-116
1.7081371e-116
4.7044608e-118
2.322447e-118
2.6238314e-117
5.6543169e-117
1.7571168e-116
2.0050837e-116
8.1850214e-116
1.7744247e-115
3.6398165e-116
1.3239799e-116
9.1495407e-117
8.3810783e-116
3.9459915e-116
9.9936785e-117
2.1387756e-115
1.2953333e-114
3.8035772e-115
4.3858577e-115
5.4044944e-116
3.6669676e-116
1.898827e-117
3.1297288e-119
3.0082665e-118
4.2493311e-118
1.0439091e-117
1.3029923e-117
7.8937851e-117
1.6549168e-116
3.1849546e-117
1.2771683e-117
2.5702927e-117
2.1769446e-116
1.1195607e-116
2.7418734e-117
7.1805453e-116
3.6184962e-115
1.1239812e-115
1.2189982e-115
2.2044298e-116
2.903974e-116
1.3899579e-117
2.1331768e-120
1.6740456e-119
2.2589899e-119
6.003776e-119
8.4426065e-119
3.4056991e-118
6.3006776e-118
2.19782e-118
2.0287549e-118
9.097867e-118
3.7270384e-117
2.49473e-117
1.1341682e-116
1.715005e-116
7.0197834e-116
2.3645266e-116
2.4545467e-116
6.6437085e-117
1.0458273e-116
5.3744345e-118
1.7619824e-121
1.0359735e-120
1.3048169e-120
4.5752637e-120
5.7625862e-120
1.8957551e-119
3.8753823e-119
1.2786755e-119
4.3591893e-119
2.1843343e-118
1.0589068e-117
5.5631197e-118
1.2988598e-117
3.8831495e-117
1.0514398e-116
4.1062781e-117
4.3663794e-117
2.2979354e-117
2.3999758e-117
1.233443e-118
2.1090983e-122
1.2160076e-121
2.8002066e-121
4.4882028e-121
2.755707e-121
1.3046954e-120
4.6050502e-120
5.1153822e-119
2.2264671e-118
6.128689e-119
6.6454146e-118
3.6341149e-118
4.1702391e-117
6.6946047e-118
1.702736e-117
6.3111219e-118
7.9318332e-118
5.7593731e-118
4.4180338e-118
2.1734668e-119
6.3994964e-123
2.445037e-122
9.4683175e-122
1.5475207e-121
3.787266e-122
1.101922e-121
1.1007934e-120
1.8391852e-119
9.0754254e-119
3.0969222e-118
3.0729693e-118
2.1729565e-118
2.4969053e-117
1.6826044e-118
6.0136942e-118
1.9982645e-118
1.2633035e-118
1.3684881e-118
4.9236049e-119
2.8005541e-120
1.710064e-123
4.6441111e-123
2.4094983e-122
4.5762579e-122
1.1107726e-122
1.1489897e-121
2.8241677e-120
5.6362652e-120
7.5062013e-119
1.5716893e-118
7.3241471e-119
1.3101381e-118
6.5991362e-118
5.6111556e-119
3.2152275e-118
8.9816832e-119
4.0659255e-119
2.1271633e-119
4.4745541e-120
3.337091e-121
2.4106936e-124
5.734641e-124
3.8495337e-123
7.499704e-123
3.7457978e-123
1.0842546e-121
2.369914e-120
1.2032984e-120
2.2530032e-119
2.7780062e-119
7.9474499e-120
3.6949046e-119
1.0434807e-118
1.2690092e-119
7.804894e-119
2.1096919e-119
1.8774928e-119
2.421859e-120
4.3627029e-121
5.8283659e-122
2.8225654e-125
5.6504144e-125
4.2187128e-124
8.2847375e-124
6.7240184e-124
2.2751129e-122
5.0269903e-121
2.0511636e-121
3.7501351e-120
3.5860859e-120
6.2881865e-121
8.362244e-120
1.1538531e-119
1.9327461e-120
1.1521548e-119
3.3261915e-120
4.7657815e-120
3.2951418e-121
6.4389762e-122
1.7222181e-122
1.7406134e-126
5.4655967e-126
3.3110433e-125
7.1975929e-125
8.5315823e-125
3.3324877e-123
6.7051143e-122
2.385301e-122
4.1073791e-121
3.2914902e-121
8.4960969e-122
1.3616324e-120
1.579902e-120
2.364256e-121
1.2144944e-120
4.0113371e-121
8.9514608e-121
4.4559618e-122
2.016311e-122
6.8699749e-123
1.309481e-127
1.1733874e-126
2.0804285e-126
4.0768365e-126
9.7134741e-126
3.3485161e-124
5.8512028e-123
2.2804637e-123
3.4596845e-122
2.5899107e-122
1.0013967e-122
1.6987951e-121
2.4416164e-121
2.0335937e-122
1.0994557e-121
4.1136592e-122
8.7925322e-122
6.4474445e-123
6.5902254e-123
2.6257716e-122
3.192501e-128
3.5554786e-127
1.8474679e-127
4.8525527e-127
9.5398961e-127
2.6595358e-125
4.0165798e-124
2.4126839e-124
1.4522402e-123
1.2808154e-123
6.1078212e-124
1.0526401e-122
2.2892147e-122
1.0711524e-123
1.1309899e-122
4.2344915e-123
8.8146418e-123
1.0727569e-123
4.157486e-123
4.8175284e-122
7.4075469e-129
5.3133321e-128
4.3978078e-128
1.1048525e-127
5.0757128e-127
2.0904248e-126
3.9207043e-125
3.6853508e-125
1.5645394e-124
7.2933263e-125
6.3889717e-125
1.1517891e-123
3.0683549e-123
1.6307429e-124
1.0282e-123
5.1148462e-124
6.2438388e-124
2.2608332e-124
2.731511e-123
4.4080277e-122
1.5201125e-129
6.0085944e-129
1.1390311e-128
6.1649728e-128
5.4291204e-127
1.1117462e-126
1.3937464e-125
1.9041501e-125
1.3364484e-125
6.8438916e-126
7.1743592e-126
1.1654039e-124
3.1026651e-124
3.1998124e-125
9.1728095e-125
6.5384413e-125
5.4879561e-125
7.5535091e-125
1.4452537e-123
2.4835576e-122
1.1713269e-129
6.6011739e-130
2.5448462e-129
2.7933616e-128
2.7902863e-127
4.7478789e-127
5.6018222e-126
7.1856734e-126
1.2016956e-126
2.6278073e-126
1.1674703e-126
9.8100597e-126
2.6039084e-125
7.2881276e-126
1.0715553e-125
1.1294913e-125
7.7533848e-126
2.8659551e-125
6.0328875e-124
9.7079266e-123
5.3616995e-130
1.0881026e-130
5.83302e-130
1.1094859e-128
7.0685413e-128
1.1445746e-127
1.5916093e-126
2.021288e-126
4.4762757e-127
8.2199668e-127
4.6646067e-127
1.3946516e-126
2.6454282e-126
1.3699896e-126
4.5237202e-126
4.9570196e-126
1.5179643e-126
8.6017779e-126
1.7474862e-124
2.7356969e-123
1.1158244e-130
3.8617157e-131
1.8562194e-130
2.7864968e-129
1.6542821e-128
4.2376976e-128
3.681069e-127
4.5596387e-127
9.6412461e-127
2.8655129e-127
3.5138461e-127
1.1669223e-126
6.390847e-127
5.5134957e-127
3.6773784e-126
2.5505628e-126
3.8455604e-127
2.5201763e-126
4.2250068e-125
5.9229717e-124
3.8460908e-131
3.9454645e-131
1.6150609e-130
6.3099805e-130
5.9459704e-129
1.2204125e-127
1.671937e-126
1.4535542e-127
6.2575678e-127
9.7891361e-128
8.5931337e-127
7.6185141e-126
1.1925608e-126
1.0865909e-126
4.6501889e-126
2.0584449e-126
4.7478845e-127
5.8932593e-127
7.3189847e-126
1.1131234e-124
3.9818626e-130
4.2565153e-130
3.2114361e-129
2.7184103e-129
3.3049489e-128
7.3699963e-128
8.5050412e-127
5.0025028e-128
2.2597519e-127
1.3894269e-127
3.1086315e-126
5.3764307e-125
2.1353232e-126
9.7981122e-127
4.1368372e-126
1.6101707e-126
5.4910656e-127
4.5769608e-127
1.0647082e-126
1.8175038e-125
4.353475e-130
2.9754184e-129
3.7789717e-128
5.129401e-128
1.5825238e-127
1.2606957e-127
2.0303879e-127
3.9431899e-128
2.1631458e-127
4.4516687e-127
2.5824688e-126
3.8969736e-125
1.6766911e-126
8.5778961e-127
1.5556191e-126
6.5336299e-127
3.1598153e-127
4.0904036e-127
1.1703101e-127
2.0916916e-126
1.4209634e-130
1.3285105e-129
2.2283436e-128
1.3943912e-127
1.678876e-126
1.371583e-126
4.1981742e-128
2.7862682e-128
5.1063519e-127
6.1343582e-126
6.1291644e-126
1.3472918e-125
9.8967164e-127
7.6074515e-127
6.6511694e-127
1.7672478e-127
1.0610435e-127
2.1557546e-127
2.3076107e-128
2.0147639e-127
3.0964274e-131
3.5796029e-130
5.7075008e-129
5.7995863e-128
8.0987996e-127
5.9332817e-127
4.3758844e-128
1.6883286e-128
3.2489634e-127
4.1611872e-126
5.005349e-126
2.8526001e-126
3.3094881e-127
4.5239383e-127
2.5690697e-127
5.0208606e-128
3.8804969e-128
8.9083719e-128
5.4278143e-129
2.7405799e-128
8.6122918e-132
5.8703323e-131
6.5974307e-130
1.0200609e-128
1.0288577e-127
1.1322745e-127
4.6630344e-128
6.4725459e-128
9.2938107e-128
1.269678e-126
1.8265153e-126
3.9036792e-127
8.8371925e-128
1.9303611e-127
9.0651778e-128
1.1998885e-128
9.8947081e-129
1.8650128e-128
1.0285524e-129
3.7857621e-129
2.2328838e-131
2.7852261e-131
7.0722185e-131
7.5513197e-130
9.6589836e-129
1.5920927e-128
1.6267384e-128
2.9167775e-128
2.0135779e-128
2.270473e-127
3.0526574e-127
3.156776e-128
1.5839525e-128
5.2335342e-128
2.2205802e-128
4.6538898e-129
7.0190881e-129
2.7656007e-129
1.927622e-130
4.6036619e-130
5.7985746e-132
5.732262e-132
7.635918e-132
4.5885559e-131
6.7434643e-130
1.6735736e-129
3.6035401e-129
6.2313895e-129
3.9439456e-129
2.8758854e-128
6.2070377e-128
4.9368375e-129
6.4061034e-129
1.6827126e-128
4.7598237e-129
1.7354875e-129
4.1842034e-129
5.1452992e-130
6.4323273e-131
6.7165044e-131
2.4408682e-132
3.8392951e-132
2.825257e-131
1.7320356e-131
9.971864e-131
1.8867905e-130
1.5733323e-129
5.7741913e-129
2.465652e-128
1.0363365e-128
3.7978926e-128
3.0092491e-129
2.5814754e-129
3.9294358e-129
8.6337646e-130
4.7941835e-130
1.6403371e-129
2.6723272e-130
6.9265103e-131
1.0739076e-131
5.0291279e-133
2.3165581e-132
4.0244403e-131
1.0045538e-130
4.5689687e-130
1.4302705e-130
4.5800026e-130
4.1001162e-129
2.5184278e-128
3.6919728e-129
8.5421054e-129
6.185017e-130
5.2443846e-130
1.076221e-129
8.3345743e-130
1.0632868e-130
3.3926362e-130
7.6721083e-131
3.5277867e-131
2.2285993e-132
8.1822496e-134
1.4217688e-132
2.6966642e-131
8.0743224e-131
1.4396878e-129
2.5497562e-129
2.7112832e-130
3.0510856e-129
3.3623757e-128
9.1825463e-129
1.0502772e-129
3.5451e-130
7.6969722e-130
3.8623689e-129
1.6956547e-129
1.8101545e-130
2.0166027e-130
1.9659639e-131
6.9313954e-132
3.86405e-133
2.7800519e-133
3.6691845e-132
2.7385856e-131
8.2795379e-131
6.4103683e-130
1.2257385e-129
5.1698759e-130
1.6503361e-129
6.4907041e-129
1.8668799e-129
1.6287057e-130
8.9845709e-130
7.7642812e-130
2.2338274e-129
1.7143063e-129
1.1568266e-129
1.0642504e-130
5.9762701e-132
9.233535e-133
5.9046684e-134
1.0073573e-114
5.9237082e-115
1.1219018e-114
8.3116168e-114
1.3954888e-113
2.152924e-113
2.6466672e-113
6.4776585e-113
8.0669356e-113
3.3040907e-114
2.3379239e-115
2.3216443e-113
3.444804e-113
7.2137248e-114
2.6263198e-114
3.2485784e-113
3.6540106e-113
1.5327138e-113
1.9646116e-113
3.7729807e-115
1.8919511e-115
7.6722706e-116
1.2699489e-115
1.1570198e-114
1.4978492e-114
3.8657166e-114
3.2080142e-114
8.5340162e-114
1.1494524e-113
1.7283447e-114
1.2773065e-114
1.1454036e-113
7.5980127e-114
1.8944133e-114
5.5174588e-115
3.1708435e-113
3.4224259e-113
1.4916118e-113
2.2483175e-113
4.6420857e-115
1.9032662e-116
4.6868691e-117
9.8759741e-117
7.6315688e-116
1.020985e-115
6.6009197e-115
3.8905582e-115
8.9730646e-115
1.1902756e-114
1.5770092e-115
1.402414e-114
2.5109712e-114
2.0393997e-114
4.4610057e-115
1.1454324e-115
1.2850223e-113
1.3212532e-113
7.3088948e-114
1.2808666e-113
3.0508773e-115
9.2216026e-118
2.6145929e-118
4.1736336e-118
3.3546761e-117
4.355818e-117
5.79749e-116
4.2082805e-116
7.6010807e-116
1.003123e-115
2.6282526e-116
7.4782047e-115
5.691509e-115
5.172484e-115
1.0033001e-115
9.6106544e-116
2.5549328e-114
3.6275643e-114
2.3264707e-114
3.8991526e-114
1.2929595e-115
4.3384294e-119
1.4178417e-119
1.6859556e-119
1.414831e-118
2.8573873e-118
6.5866261e-117
4.8544001e-117
5.252991e-117
8.1360552e-117
1.7802381e-116
3.2356547e-115
1.3159081e-115
1.6154603e-115
2.5013437e-116
1.7820931e-116
6.5277631e-115
8.0662358e-115
5.4757096e-115
7.6094578e-115
3.3227246e-116
2.3546159e-120
1.0130614e-120
4.4456514e-120
6.9562167e-120
2.1269342e-119
6.7967058e-118
1.6319375e-117
4.4899531e-117
8.0993613e-118
4.695697e-117
1.0660316e-115
2.8617108e-116
3.1588328e-116
5.0013801e-117
4.9528936e-117
8.0330003e-116
1.4279275e-115
9.6834513e-116
1.4758535e-115
6.2215276e-117
2.8430902e-121
2.6597983e-121
1.2096725e-120
8.0123926e-121
2.7046778e-120
7.7768338e-119
3.7971823e-118
2.6847224e-117
9.7571791e-119
1.3994242e-117
2.9332237e-116
7.9458676e-117
3.3429652e-116
8.3540908e-117
3.1231636e-117
1.5425568e-116
1.9820591e-116
1.3750201e-116
1.3001314e-116
8.8994386e-118
3.4001034e-122
5.7487448e-122
1.7796617e-121
1.0472133e-121
6.6174042e-121
9.8711098e-120
6.1577497e-119
4.813134e-118
1.1782062e-119
2.5005473e-118
4.1076669e-117
1.9238084e-117
1.7857901e-116
5.6026244e-117
1.5912778e-117
3.9128329e-117
2.3458235e-117
1.6676995e-117
9.8301157e-118
1.1928344e-118
3.3661795e-123
8.5290956e-123
1.7544397e-122
2.0367034e-122
2.0639892e-121
3.7343206e-120
9.7141239e-120
7.0254826e-119
1.9420742e-120
2.0151125e-119
3.5388651e-118
5.6639358e-118
3.1401099e-117
1.9559782e-117
3.8669033e-118
7.0130138e-118
1.6934171e-118
1.3041099e-118
1.3855355e-118
1.2493735e-119
2.0576142e-124
9.4712406e-124
1.492158e-123
2.8579832e-123
4.4650811e-122
9.9288745e-121
1.2011461e-120
7.1568231e-120
3.0302061e-121
3.4141893e-120
8.1520368e-119
1.2922348e-118
5.9019816e-118
3.141355e-118
4.7695847e-119
1.1248728e-118
1.6134967e-119
1.2223721e-119
2.5640024e-119
2.7791511e-120
1.0822932e-125
8.0051921e-125
1.2655627e-124
6.3736393e-124
2.4267998e-122
6.679299e-121
1.3919392e-121
5.6557373e-121
4.9581792e-122
5.8421897e-121
1.8277835e-119
2.0598387e-119
8.8315077e-119
3.9001764e-119
5.3202628e-120
1.2995398e-119
1.4522367e-120
2.3785564e-120
1.0363873e-119
3.2835613e-120
9.6847205e-127
4.2692563e-126
2.66085e-125
1.4916082e-124
4.8242715e-123
1.1503293e-121
1.1843763e-122
1.8085061e-122
3.9802659e-123
8.2239471e-122
2.81532e-120
2.762319e-120
1.0850633e-119
2.4935517e-120
6.7767553e-121
1.2714642e-120
1.4273694e-121
8.0261595e-121
6.2329463e-120
5.9359963e-119
2.4095554e-127
9.8599074e-127
7.0259988e-126
2.7243205e-125
5.2410116e-124
1.0647779e-122
9.1814158e-124
6.891049e-124
3.3974627e-124
7.9723539e-123
1.6371967e-121
1.8254456e-121
8.3041992e-121
2.6762344e-121
1.2381285e-121
1.0219519e-121
4.2411776e-122
4.388553e-121
7.4449925e-120
1.1435031e-118
6.1882287e-128
3.145108e-127
1.1836256e-126
2.9408796e-126
2.0229141e-125
4.3805825e-124
6.4442316e-125
4.091198e-125
2.8741674e-125
6.3546945e-124
1.7112708e-122
1.6087854e-122
7.0603485e-122
3.1898965e-122
2.755978e-122
7.7193156e-123
1.5643334e-122
3.0066371e-121
6.0498817e-120
1.0400914e-118
1.9757494e-128
8.1052416e-128
2.2085659e-127
4.1386867e-127
1.0946948e-126
1.2944987e-125
4.7609736e-126
4.536302e-126
5.7435303e-126
6.8203796e-125
1.5774525e-123
1.7527441e-123
6.6393541e-123
3.5628653e-123
4.1610223e-123
6.5963866e-124
5.5832012e-123
1.5572713e-121
3.3342685e-120
5.7549796e-119
4.2909347e-129
1.5217385e-128
3.8014816e-128
7.7833931e-128
1.5656988e-127
3.4790874e-127
9.7029223e-127
1.203303e-126
1.3135073e-126
7.9732676e-126
1.4046607e-124
1.6148877e-124
4.9051512e-124
4.5271347e-124
7.469931e-124
1.4068877e-124
2.3685866e-123
6.1538409e-122
1.3847561e-120
2.1602679e-119
1.4264004e-129
2.5024151e-129
5.302322e-129
2.4666973e-128
1.8104433e-127
1.2384476e-127
2.2831517e-127
4.2530259e-127
1.3434802e-126
1.5479108e-126
1.3189906e-125
1.9246408e-125
5.6121307e-125
6.4734836e-125
1.4059009e-124
3.4060757e-125
6.8798293e-124
1.7730524e-122
4.2765449e-121
6.0264984e-120
7.2057695e-130
1.4905072e-129
4.9851385e-129
2.3643877e-128
1.8901527e-127
1.8103734e-127
1.3188177e-127
1.9897583e-127
8.9362753e-127
1.3853153e-126
2.2714858e-126
3.4800496e-126
9.2878014e-126
1.1324986e-125
2.6514848e-125
8.853626e-126
1.8271171e-124
4.3454611e-123
8.9970313e-122
1.2984291e-120
5.0755517e-130
7.9399941e-130
2.9626147e-129
9.9340891e-129
1.1765347e-127
1.8134498e-127
1.8553207e-127
2.2582833e-127
3.3488895e-127
1.0169599e-126
1.120504e-126
2.6110421e-126
2.9714818e-126
3.9810952e-126
6.0756894e-126
3.8521735e-126
2.8147892e-125
5.8109838e-124
1.4781933e-122
2.5820957e-121
2.8260656e-130
5.8764781e-130
1.6682558e-129
3.7441189e-129
3.9759105e-128
6.9401397e-128
1.1926108e-127
3.4365574e-127
1.6667488e-127
7.1981805e-127
1.1468277e-126
5.8837691e-126
5.6814271e-126
3.8998883e-126
4.3946434e-126
2.215471e-126
4.9893115e-126
7.4192175e-125
1.9345311e-123
3.7813987e-122
2.2362391e-130
5.1021582e-130
6.1988093e-129
3.0053421e-128
2.5178342e-127
5.5632559e-128
4.4373666e-127
1.7929468e-127
2.6432337e-127
1.9969611e-126
7.0524973e-126
4.6279186e-126
4.6487828e-126
3.0295435e-126
3.2946313e-126
1.21652e-126
1.5610122e-126
1.1157898e-125
2.2559871e-124
3.6497847e-123
7.6322393e-131
2.3178274e-130
4.1235337e-129
2.4315061e-128
2.8827712e-127
1.3181891e-127
2.1836351e-127
1.594223e-127
1.8265828e-127
1.9637247e-126
6.2073135e-126
9.1581975e-126
2.1798703e-126
1.7247143e-126
1.6257206e-126
1.3365314e-126
5.8231699e-127
1.9715464e-126
3.1372414e-125
4.7809031e-124
1.0878169e-131
7.2969223e-131
1.4456592e-129
2.3398096e-128
4.2639947e-127
1.0277526e-126
8.2579512e-128
1.575303e-127
1.5618789e-127
1.5863069e-126
4.8925039e-126
8.2326738e-126
1.7939776e-126
1.0284855e-126
5.5837121e-127
1.4100239e-126
3.660801e-127
3.6441926e-127
3.1493925e-126
5.4376522e-125
1.8465131e-131
2.1868677e-131
6.5601899e-130
1.6861609e-128
2.8625028e-127
5.2090561e-127
2.4195524e-128
6.2150273e-128
8.4004038e-128
1.0082846e-126
2.1716934e-126
2.9803369e-126
8.7036573e-127
2.8062822e-127
1.3031113e-127
7.5205163e-127
1.7121893e-127
1.0167844e-127
3.2896966e-127
5.5012403e-126
1.525292e-131
5.8157875e-131
4.5132685e-130
9.3296174e-129
1.2855055e-127
1.2812926e-127
8.2362747e-129
1.4167248e-128
2.2966942e-128
2.0939347e-127
4.2205305e-127
6.9444502e-127
3.1933933e-127
1.1346887e-127
1.5520908e-127
3.1226804e-127
8.2988404e-128
3.2732876e-128
4.3241011e-128
4.7575479e-127
3.3824682e-132
1.1839813e-131
9.5121745e-131
1.923639e-129
2.0623323e-128
1.8942046e-128
4.6413084e-129
2.5907736e-129
1.340773e-128
3.3083313e-128
5.4904908e-128
9.0220959e-128
1.2195911e-127
4.048487e-128
8.3734371e-128
9.9886011e-128
3.3963946e-128
1.2310606e-128
2.092405e-128
3.637428e-128
1.8811919e-131
6.6348048e-132
9.2908964e-131
5.0983396e-130
2.0684569e-129
2.121119e-129
3.8882312e-129
3.296384e-129
2.3066444e-128
5.6520502e-128
2.0601463e-128
3.1629063e-128
2.1366539e-128
6.5283722e-129
1.5956718e-128
2.3687216e-128
1.4726979e-128
1.1082241e-128
1.7414908e-128
3.1443911e-129
6.5485074e-132
2.3459082e-131
1.5576887e-130
8.4364318e-131
3.1424229e-130
3.7569202e-129
5.4540338e-128
1.7686147e-129
7.3415321e-129
1.9310348e-128
1.4018284e-128
4.9225357e-128
4.8051315e-128
6.0710972e-129
2.9033687e-129
3.9132275e-129
4.2757292e-129
5.5130904e-129
5.4830685e-129
3.9477994e-130
4.7133071e-132
1.286745e-131
1.6121758e-130
1.7531462e-130
2.0822506e-130
4.4098755e-129
6.3385328e-128
1.2653575e-129
2.7065107e-129
3.8370458e-129
3.2351959e-128
1.1717626e-127
2.0254403e-127
1.1874149e-128
1.2752053e-129
2.3499468e-129
1.0643344e-129
1.2814238e-129
9.5854029e-130
5.5730469e-131
8.0414276e-133
6.8105461e-132
5.2268355e-131
9.4398154e-131
8.3256233e-130
1.2521212e-129
1.1726843e-128
2.718677e-129
5.0201547e-129
6.7015392e-129
3.5469595e-128
7.0543622e-128
6.590221e-128
4.1539685e-129
6.7798053e-130
2.5905704e-129
3.5188519e-130
1.3693558e-130
9.2686005e-131
1.1611168e-131
6.9881175e-115
3.9948074e-114
5.7218716e-114
1.3787105e-113
3.9792577e-113
5.3246899e-113
5.2997504e-113
9.4734489e-113
2.8631644e-112
3.0932027e-111
1.2047276e-111
3.5352997e-112
4.5401435e-112
2.4430414e-112
8.3003909e-113
8.3597217e-113
9.8195755e-113
2.760419e-113
4.2304622e-114
1.3811297e-115
2.1478014e-115
5.4440059e-115
1.146732e-114
4.016443e-114
8.7830797e-114
1.0706678e-113
9.6114487e-114
1.3043891e-113
4.6765186e-114
5.5051053e-112
2.0613788e-112
1.5515458e-112
3.4368294e-112
2.2940325e-112
6.405456e-113
5.9070654e-113
5.4516684e-113
1.2607797e-113
2.3687906e-114
6.6768184e-116
2.1219445e-116
4.5359411e-116
1.7712012e-115
6.4911878e-115
1.5378688e-114
1.6889784e-114
9.8325753e-115
1.1623897e-114
5.2706632e-115
7.86154e-113
2.4374241e-113
4.2392171e-113
8.7477771e-113
7.306875e-113
2.2471803e-113
1.5034594e-113
1.8105119e-113
3.2555506e-114
1.0382618e-114
5.3689632e-116
1.9577688e-117
3.2317893e-117
2.0735119e-116
6.9856715e-116
1.7435009e-115
2.5231189e-115
8.3355358e-116
2.5426013e-115
1.1450721e-115
9.0260319e-114
3.0631586e-114
1.0551306e-113
2.031508e-113
1.6257628e-113
7.1765196e-114
3.3802962e-114
3.0879084e-114
7.1097591e-115
3.0982996e-115
1.6604653e-116
1.5188409e-118
2.1619928e-118
2.0573617e-117
6.7576762e-117
1.8164776e-116
2.8151173e-116
1.3334527e-116
5.4195694e-116
1.1508279e-115
4.338988e-114
6.5493368e-114
3.3038862e-114
2.8644118e-114
3.263521e-114
2.7124388e-114
9.6529825e-115
5.507448e-115
2.394876e-115
1.0745196e-115
1.0901355e-116
7.4716425e-120
1.2269853e-119
1.5270568e-118
4.077483e-118
1.8031354e-117
1.6181471e-116
1.0472175e-115
8.7823519e-117
1.0792444e-115
2.6627867e-114
3.0090971e-114
1.0281218e-114
9.8357215e-115
8.2624911e-115
1.0403002e-114
1.8188649e-115
1.1475817e-115
1.0185761e-115
7.819303e-116
1.2237506e-116
4.3939297e-121
1.1998727e-120
1.4320923e-119
5.4945211e-119
3.2802977e-118
3.765391e-117
2.8938632e-116
2.2788316e-117
2.7298765e-116
8.805063e-115
1.1800806e-114
2.1025367e-114
9.524472e-114
4.1212043e-115
5.5717098e-115
3.1934811e-116
2.4013277e-116
4.7331863e-116
7.4620336e-116
1.084783e-116
2.9975986e-122
1.876245e-121
1.2907876e-120
8.9856501e-120
6.9600909e-119
3.5059961e-118
3.5709916e-117
3.3832635e-118
3.8750906e-117
1.0905092e-115
2.6756482e-115
1.1236008e-114
6.4953732e-114
2.4687855e-115
3.1241012e-115
6.0335742e-117
5.5823602e-117