/*--------------------------------*- C++ -*----------------------------------*\
| =========                 |                                                 |
| \\      /  F ield         | OpenFOAM: The Open Source CFD Toolbox           |
|  \\    /   O peration     | Version:  1.7.x                                 |
|   \\  /    A nd           | Web:      www.OpenFOAM.com                      |
|    \\/     M anipulation  |                                                 |
\*---------------------------------------------------------------------------*/
FoamFile
{
    version     2.0;
    format      ascii;
    class       volScalarField;
    location    "0.003";
    object      k;
}
// * * * * * * * * * * * * * * * * * * * * * * * * * * * * * * * * * * * * * //

dimensions      [0 2 -2 0 0 0 0];

internalField   nonuniform List<scalar> 
206988
(
0.16892724
0.017050457
0.002249354
0.00025774252
4.3806899e-05
2.5999127e-05
2.4678323e-05
2.4708935e-05
2.4681865e-05
2.4824438e-05
2.4682762e-05
2.5018957e-05
2.5009692e-05
2.5202202e-05
2.5391934e-05
2.526361e-05
2.5546257e-05
4.6595685e-05
0.0027302792
0.062791381
0.093248303
0.010234351
0.00077991494
8.7410375e-05
2.8323421e-05
2.4049863e-05
2.3824185e-05
2.4116837e-05
2.4131243e-05
2.4559916e-05
2.4266318e-05
2.4737006e-05
2.429758e-05
2.4809171e-05
2.4600002e-05
2.5152465e-05
2.4971587e-05
2.8206341e-05
0.00078230566
0.06123494
0.052254238
0.0035830682
0.00022874986
3.5943733e-05
2.4202327e-05
2.3564062e-05
2.3458962e-05
2.3684668e-05
2.3417124e-05
2.406314e-05
2.3399851e-05
2.4280237e-05
2.3608616e-05
2.4433223e-05
2.404935e-05
2.4617358e-05
2.4000259e-05
3.5084303e-05
0.0024549082
0.059957149
0.034749213
0.0012477886
7.1634023e-05
2.6034896e-05
2.3779183e-05
2.3682481e-05
2.3539415e-05
2.3819157e-05
2.3271288e-05
2.4117428e-05
2.2797963e-05
2.4326642e-05
2.3210624e-05
2.4605628e-05
2.3146038e-05
2.4266177e-05
2.3768698e-05
2.1466355e-05
0.00061902494
0.054670328
0.02653977
0.00055895903
3.3437909e-05
2.3514006e-05
2.3220669e-05
2.3321783e-05
2.3255599e-05
2.3458512e-05
2.3162025e-05
2.3782336e-05
2.2775788e-05
2.3919568e-05
2.3362752e-05
2.4184083e-05
2.3264652e-05
2.3613675e-05
2.3719279e-05
4.1826903e-05
0.0016752524
0.050618843
0.021864116
0.00036506131
2.5856458e-05
2.2790632e-05
2.2819153e-05
2.2879135e-05
2.2935299e-05
2.3013944e-05
2.2742947e-05
2.32318e-05
2.2982223e-05
2.3870436e-05
2.2631706e-05
2.3091441e-05
2.3681275e-05
2.3531671e-05
2.3555079e-05
2.4048288e-05
0.00074448595
0.045483403
0.018396514
0.00030708557
2.5344861e-05
2.3072537e-05
2.3072277e-05
2.2988876e-05
2.2898424e-05
2.3316098e-05
2.2551779e-05
2.3384679e-05
2.2188995e-05
2.3372676e-05
2.2884753e-05
2.3478939e-05
2.2736493e-05
2.3574258e-05
2.3039039e-05
2.5668736e-05
0.00023064339
0.038301844
0.015180149
0.00022265767
2.3756804e-05
2.2538513e-05
2.2771428e-05
2.280115e-05
2.2665346e-05
2.2973007e-05
2.2424062e-05
2.3203008e-05
2.2429603e-05
2.3263705e-05
2.2697395e-05
2.3652053e-05
2.2856135e-05
2.3327055e-05
2.3053588e-05
3.9700533e-05
0.001152386
0.031793851
0.013210409
0.00019204322
2.3619485e-05
2.2605798e-05
2.2815533e-05
2.2914921e-05
2.2765001e-05
2.2933322e-05
2.2512143e-05
2.3002065e-05
2.2450672e-05
2.3429366e-05
2.2314089e-05
2.3481207e-05
2.2844913e-05
2.3528868e-05
2.2891163e-05
2.8820319e-05
0.00074426256
0.026782535
0.011819283
0.00016184139
2.3872442e-05
2.3115617e-05
2.3176636e-05
2.3224527e-05
2.3011927e-05
2.3179079e-05
2.2890309e-05
2.3090897e-05
2.2598836e-05
2.3450785e-05
2.2465172e-05
2.3498401e-05
2.2726753e-05
2.3753494e-05
2.2981802e-05
2.6824095e-05
0.00053173154
0.022795952
0.011003643
0.00015470638
2.4027846e-05
2.3291014e-05
2.3276192e-05
2.3492364e-05
2.3244157e-05
2.3296902e-05
2.3330348e-05
2.3506031e-05
2.2723156e-05
2.3936418e-05
2.2415895e-05
2.3852097e-05
2.2553315e-05
2.3652463e-05
2.334387e-05
2.7958641e-05
0.00035374158
0.020690332
0.010334836
0.00013684428
2.3499484e-05
2.3035078e-05
2.3021415e-05
2.3028036e-05
2.2986793e-05
2.3243305e-05
2.3027946e-05
2.3202634e-05
2.349593e-05
2.343469e-05
2.2686245e-05
2.3773843e-05
2.2749432e-05
2.3666003e-05
2.3205458e-05
2.7621069e-05
0.00040774579
0.020716324
0.009877239
0.00013786816
2.3456686e-05
2.2974085e-05
2.3002146e-05
2.3052491e-05
2.300966e-05
2.3180478e-05
2.3178086e-05
2.2979684e-05
2.3503158e-05
2.3168302e-05
2.2877061e-05
2.3657521e-05
2.2992206e-05
2.3743285e-05
2.341166e-05
2.7162361e-05
0.00038077936
0.020476524
0.0093509521
0.00014228972
2.3930777e-05
2.3267555e-05
2.3283438e-05
2.3358619e-05
2.3303617e-05
2.3165426e-05
2.3324028e-05
2.3438106e-05
2.3380971e-05
2.3757274e-05
2.3067332e-05
2.3406213e-05
2.3268323e-05
2.374827e-05
2.3608403e-05
3.0900038e-05
0.00050825726
0.020182235
0.0085964533
0.00012991422
2.338814e-05
2.2951297e-05
2.2946634e-05
2.3011769e-05
2.28725e-05
2.3040476e-05
2.2973648e-05
2.3400022e-05
2.3190168e-05
2.3784419e-05
2.3061272e-05
2.3480976e-05
2.3324649e-05
2.3733746e-05
2.3629347e-05
2.7263003e-05
0.0004702085
0.019689995
0.0079035469
0.00012528571
2.3312084e-05
2.2862352e-05
2.2921616e-05
2.2926182e-05
2.2976012e-05
2.2943791e-05
2.3383156e-05
2.2950502e-05
2.3438426e-05
2.3116833e-05
2.3388717e-05
2.3512871e-05
2.3465268e-05
2.3673678e-05
2.3711278e-05
2.8972022e-05
0.00038780577
0.018963159
0.007274544
0.00012082204
2.380125e-05
2.3221009e-05
2.3228847e-05
2.3235698e-05
2.32317e-05
2.3205547e-05
2.3219467e-05
2.3349037e-05
2.3430241e-05
2.3333041e-05
2.3600105e-05
2.3381999e-05
2.3493848e-05
2.3512598e-05
2.3556533e-05
2.6977405e-05
0.00043601757
0.018009418
0.0065395988
0.00010699494
2.3143578e-05
2.2770616e-05
2.2873749e-05
2.2795391e-05
2.28394e-05
2.3076334e-05
2.3026726e-05
2.3057804e-05
2.3249856e-05
2.3018493e-05
2.3400254e-05
2.3512499e-05
2.3403715e-05
2.3564198e-05
2.3568497e-05
2.7690152e-05
0.00039999713
0.017093735
0.0060247746
0.00010195258
2.3149021e-05
2.2756283e-05
2.2818101e-05
2.2666872e-05
2.2866085e-05
2.2755386e-05
2.294761e-05
2.3054241e-05
2.3216202e-05
2.3203886e-05
2.3158347e-05
2.3504963e-05
2.3264451e-05
2.3579404e-05
2.3556436e-05
2.831344e-05
0.0003617165
0.015875828
0.0055079478
9.8471339e-05
2.3300036e-05
2.2938843e-05
2.288356e-05
2.3057935e-05
2.2876329e-05
2.2835219e-05
2.2768683e-05
2.275083e-05
2.293916e-05
2.3556274e-05
2.3216437e-05
2.3416215e-05
2.3240446e-05
2.3470734e-05
2.3392126e-05
2.6810427e-05
0.00035951388
0.014534945
0.0049317837
9.2177e-05
2.3246847e-05
2.28902e-05
2.2914015e-05
2.289126e-05
2.2974713e-05
2.2864435e-05
2.3068492e-05
2.2989207e-05
2.3319882e-05
2.3181768e-05
2.318473e-05
2.3293301e-05
2.314272e-05
2.3358047e-05
2.3336868e-05
2.7016349e-05
0.00032457976
0.013272785
0.0044041521
8.2288827e-05
2.2753194e-05
2.2482726e-05
2.2529334e-05
2.2521828e-05
2.2701703e-05
2.2530167e-05
2.2889432e-05
2.247955e-05
2.2913536e-05
2.2719569e-05
2.2986421e-05
2.2959143e-05
2.307131e-05
2.3189503e-05
2.321633e-05
2.6320964e-05
0.00025818869
0.011893924
0.0039458453
7.6777271e-05
2.2615944e-05
2.22973e-05
2.2351297e-05
2.2382852e-05
2.2409033e-05
2.2485432e-05
2.2619545e-05
2.2382968e-05
2.2720458e-05
2.2666062e-05
2.2822902e-05
2.2892241e-05
2.2949601e-05
2.3030948e-05
2.3063597e-05
2.6238882e-05
0.00027157762
0.010564096
0.0034591033
7.2130325e-05
2.2804246e-05
2.2529507e-05
2.2574498e-05
2.2549744e-05
2.2673417e-05
2.2414428e-05
2.2760333e-05
2.2447125e-05
2.2747008e-05
2.2722882e-05
2.2827372e-05
2.2824579e-05
2.2852527e-05
2.2961161e-05
2.3003152e-05
2.5405306e-05
0.00022336134
0.0092970939
0.0029804866
6.4322087e-05
2.2237273e-05
2.2046899e-05
2.2147065e-05
2.2081513e-05
2.2231361e-05
2.2128753e-05
2.2294043e-05
2.2340236e-05
2.2495445e-05
2.2490301e-05
2.2591492e-05
2.2563377e-05
2.2593441e-05
2.2675873e-05
2.2767931e-05
2.508856e-05
0.00019653039
0.0081002071
0.0025345733
5.8748868e-05
2.2133984e-05
2.1907039e-05
2.201475e-05
2.1963177e-05
2.2081735e-05
2.203172e-05
2.2101254e-05
2.2138818e-05
2.2264142e-05
2.2273909e-05
2.2414786e-05
2.2379603e-05
2.248499e-05
2.2485348e-05
2.2573636e-05
2.4670412e-05
0.00017295485
0.0069428956
0.0021216254
5.3045491e-05
2.2373533e-05
2.2175332e-05
2.2225634e-05
2.2179297e-05
2.2288358e-05
2.2226129e-05
2.231849e-05
2.2170903e-05
2.2376913e-05
2.236186e-05
2.2463895e-05
2.2440272e-05
2.250713e-05
2.2512479e-05
2.256071e-05
2.4626337e-05
0.00016470583
0.0059977721
0.0017015413
4.6737547e-05
2.1846686e-05
2.1746807e-05
2.1792158e-05
2.1765052e-05
2.1881754e-05
2.1851213e-05
2.2052406e-05
2.1830513e-05
2.2161892e-05
2.2098378e-05
2.2260293e-05
2.2240723e-05
2.2311884e-05
2.228405e-05
2.2413784e-05
2.403975e-05
0.00013620702
0.0048504432
0.0013957408
4.1914604e-05
2.1754968e-05
2.1673621e-05
2.1689846e-05
2.1671414e-05
2.1776704e-05
2.1741685e-05
2.193916e-05
2.1796184e-05
2.2054048e-05
2.2072723e-05
2.2143369e-05
2.2148554e-05
2.2230807e-05
2.2178584e-05
2.2291608e-05
2.4188636e-05
0.00013602443
0.0042083034
0.00099981582
3.7778986e-05
2.1953954e-05
2.1887713e-05
2.1948104e-05
2.1887216e-05
2.2080433e-05
2.1956746e-05
2.2212934e-05
2.1986113e-05
2.2321153e-05
2.2197696e-05
2.2359841e-05
2.2404886e-05
2.235512e-05
2.2371597e-05
2.2314712e-05
2.2935013e-05
8.7918068e-05
0.0034790936
0.14851409
0.0097043715
0.0011086552
0.00011971461
1.9389865e-05
1.1101584e-05
1.1056882e-05
1.0769164e-05
1.1049116e-05
1.0600242e-05
1.0954607e-05
1.1198943e-05
1.1074882e-05
1.1179843e-05
1.1239024e-05
1.1656745e-05
1.1733907e-05
2.0897685e-05
0.0011199342
0.062897103
0.094668326
0.0074687409
0.00041431658
4.1151602e-05
1.2456796e-05
1.0653067e-05
1.0593581e-05
1.0523355e-05
1.0722493e-05
1.0564195e-05
1.0764872e-05
1.0788296e-05
1.1201072e-05
1.0792093e-05
1.122107e-05
1.1446357e-05
1.1341653e-05
1.0500592e-05
0.00091250558
0.063279073
0.052927458
0.0031626415
0.00014877782
1.7449257e-05
1.1291499e-05
1.0947777e-05
1.0756526e-05
1.0844123e-05
1.0818992e-05
1.1052663e-05
1.082572e-05
1.0876975e-05
1.1002569e-05
1.1015057e-05
1.1079357e-05
1.0793973e-05
1.1001219e-05
1.0934231e-05
0.00093965887
0.061952027
0.035195163
0.00096432558
4.3521756e-05
1.2239479e-05
1.0656595e-05
1.1103772e-05
1.0762019e-05
1.1143522e-05
1.0616193e-05
1.1068806e-05
1.0420537e-05
1.1098646e-05
1.0810898e-05
1.1320916e-05
1.0924126e-05
1.0810828e-05
1.1138854e-05
1.3814699e-05
0.00040113932
0.056024299
0.027416728
0.00050024351
1.7529314e-05
1.0629312e-05
1.0421931e-05
1.0626908e-05
1.0451287e-05
1.100042e-05
1.0476376e-05
1.1038232e-05
1.0667445e-05
1.1045298e-05
1.0546725e-05
1.1536768e-05
1.0707991e-05
1.0793473e-05
1.0836168e-05
2.5318663e-05
0.00091036147
0.049739594
0.022565762
0.00033551119
1.3632386e-05
1.1002383e-05
1.0915065e-05
1.0774428e-05
1.1001853e-05
1.0670516e-05
1.0787298e-05
1.0866434e-05
1.0596644e-05
1.099587e-05
1.0639772e-05
1.0988002e-05
1.0800398e-05
1.0587415e-05
1.0989342e-05
3.1527588e-05
0.0017727924
0.04586122
0.018822435
0.0002546867
1.2132262e-05
1.0602612e-05
1.0586787e-05
1.0552045e-05
1.0689451e-05
1.0493884e-05
1.0764061e-05
1.0804776e-05
1.0568638e-05
1.106335e-05
1.0737434e-05
1.0931443e-05
1.055404e-05
1.1119181e-05
1.0644647e-05
9.5477732e-06
0.00057839305
0.039908841
0.016029063
0.0002066515
1.1467019e-05
1.0338892e-05
1.0399638e-05
1.0331499e-05
1.0422234e-05
1.0364502e-05
1.0451735e-05
1.0518267e-05
1.0478534e-05
1.0578969e-05
1.0807531e-05
1.080574e-05
1.0616947e-05
1.0834308e-05
1.0672925e-05
1.0058031e-05
0.00014814939
0.032855177
0.014008736
0.00016124028
1.1589344e-05
1.0780798e-05
1.0645941e-05
1.0634972e-05
1.0490732e-05
1.0396416e-05
1.058258e-05
1.0399409e-05
1.0498804e-05
1.0790579e-05
1.0512285e-05
1.0603225e-05
1.0862857e-05
1.0757683e-05
1.119917e-05
1.6534209e-05
0.00048688786
0.027539546
0.012453412
0.00014593096
1.1105774e-05
1.0493142e-05
1.0533646e-05
1.0508316e-05
1.0510479e-05
1.0446705e-05
1.0449705e-05
1.0409406e-05
1.0555313e-05
1.0607655e-05
1.0552884e-05
1.0626536e-05
1.0897198e-05
1.1030475e-05
1.0837345e-05
1.6018227e-05
0.00043023084
0.023959311
0.011524834
0.00012545266
1.0902011e-05
1.046871e-05
1.0441406e-05
1.0529601e-05
1.0578108e-05
1.0399215e-05
1.0552905e-05
1.0387883e-05
1.0520328e-05
1.0653974e-05
1.0706154e-05
1.0657274e-05
1.0669456e-05
1.0915561e-05
1.0787298e-05
1.6701907e-05
0.00042956897
0.022093309
0.010889129
0.00012499529
1.080394e-05
1.0355827e-05
1.0338868e-05
1.0379516e-05
1.0478112e-05
1.037683e-05
1.0544939e-05
1.0502411e-05
1.0448664e-05
1.0595221e-05
1.0680383e-05
1.0667851e-05
1.0735011e-05
1.0758805e-05
1.0746559e-05
1.55551e-05
0.00046965722
0.022017615
0.010232883
0.00011065604
1.1079236e-05
1.0674421e-05
1.0669474e-05
1.0630699e-05
1.0701764e-05
1.0488048e-05
1.0598208e-05
1.0415237e-05
1.0613597e-05
1.0546409e-05
1.0666746e-05
1.0628703e-05
1.068794e-05
1.085543e-05
1.0843138e-05
1.4014401e-05
0.00038421272
0.021667783
0.0097075502
0.00011485044
1.0846434e-05
1.0442541e-05
1.0464387e-05
1.0451448e-05
1.0541735e-05
1.0366767e-05
1.0679942e-05
1.0434803e-05
1.0584125e-05
1.0504715e-05
1.0703423e-05
1.0626769e-05
1.0730133e-05
1.0657123e-05
1.0848137e-05
1.531137e-05
0.00048189333
0.021233824
0.0089234186
0.00010896373
1.0743914e-05
1.0283218e-05
1.0338077e-05
1.0301916e-05
1.0365564e-05
1.0452799e-05
1.0361332e-05
1.0542563e-05
1.0348014e-05
1.0649129e-05
1.0465721e-05
1.0510862e-05
1.0776315e-05
1.0660312e-05
1.0883143e-05
1.5148552e-05
0.00038251776
0.020768456
0.0081546937
0.00010006365
1.1033661e-05
1.0620206e-05
1.0647072e-05
1.0568656e-05
1.068598e-05
1.0535132e-05
1.0621179e-05
1.0376927e-05
1.056145e-05
1.0347237e-05
1.0663628e-05
1.0508401e-05
1.0715529e-05
1.0634031e-05
1.0801264e-05
1.4950962e-05
0.00039745923
0.02002247
0.0074465977
9.4037335e-05
1.0727545e-05
1.0411077e-05
1.0461278e-05
1.0379959e-05
1.047282e-05
1.0422175e-05
1.0447859e-05
1.0339533e-05
1.0540133e-05
1.0549651e-05
1.0634141e-05
1.0663274e-05
1.0785937e-05
1.0642334e-05
1.0758147e-05
1.3796226e-05
0.00036088749
0.018973258
0.0067521486
8.6735588e-05
1.0660644e-05
1.0324769e-05
1.0361847e-05
1.0330858e-05
1.0323282e-05
1.0404974e-05
1.0439511e-05
1.0389753e-05
1.0547221e-05
1.0330572e-05
1.0608008e-05
1.0484268e-05
1.0571773e-05
1.061119e-05
1.0849242e-05
1.3807678e-05
0.00033986148
0.017827549
0.0061753254
7.9689425e-05
1.0695741e-05
1.0494399e-05
1.0365612e-05
1.0526167e-05
1.052353e-05
1.0440586e-05
1.0392357e-05
1.0338357e-05
1.0455716e-05
1.0514499e-05
1.0592075e-05
1.0491808e-05
1.0587689e-05
1.0526624e-05
1.0782565e-05
1.3213772e-05
0.00024461476
0.016515693
0.0055894102
7.449677e-05
1.0568413e-05
1.0314974e-05
1.0370791e-05
1.0356028e-05
1.0363331e-05
1.0530612e-05
1.0362069e-05
1.0547547e-05
1.0411302e-05
1.0507617e-05
1.0518851e-05
1.0712494e-05
1.0599068e-05
1.0692252e-05
1.0694205e-05
1.3244817e-05
0.00030783351
0.015165205
0.0050149397
6.7658273e-05
1.0618726e-05
1.0317492e-05
1.0381227e-05
1.0370652e-05
1.0331579e-05
1.0452264e-05
1.0354897e-05
1.0407151e-05
1.0304832e-05
1.0366963e-05
1.0453135e-05
1.0462891e-05
1.0574026e-05
1.0459061e-05
1.0670802e-05
1.2918136e-05
0.00025557044
0.013684192
0.0045334751
6.3530777e-05
1.0549455e-05
1.0349947e-05
1.0356893e-05
1.0340503e-05
1.0357628e-05
1.0412221e-05
1.0317201e-05
1.0379604e-05
1.03856e-05
1.0350546e-05
1.0474084e-05
1.0472878e-05
1.0621272e-05
1.0439844e-05
1.0663071e-05
1.2257545e-05
0.00020610217
0.012203979
0.0040235532
5.7098155e-05
1.0557622e-05
1.0354746e-05
1.0358719e-05
1.034122e-05
1.0292384e-05
1.0334206e-05
1.0342066e-05
1.0296182e-05
1.0518673e-05
1.0342955e-05
1.0553158e-05
1.0434114e-05
1.0629024e-05
1.0462571e-05
1.069389e-05
1.2507569e-05
0.00017603733
0.010828924
0.0035421504
5.2425752e-05
1.0562928e-05
1.0370217e-05
1.036046e-05
1.0385863e-05
1.0380268e-05
1.0333222e-05
1.0385702e-05
1.0295972e-05
1.0544413e-05
1.0303915e-05
1.0595188e-05
1.0420001e-05
1.0678193e-05
1.042713e-05
1.0726494e-05
1.2262608e-05
0.00018238582
0.0094323888
0.0030885676
4.7058798e-05
1.0408817e-05
1.0238186e-05
1.02321e-05
1.0269465e-05
1.0243338e-05
1.0217893e-05
1.0280516e-05
1.0240431e-05
1.0437652e-05
1.0268511e-05
1.0488408e-05
1.0312052e-05
1.048814e-05
1.0333678e-05
1.0499039e-05
1.2104803e-05
0.00015922385
0.0081497698
0.0026217845
4.1925697e-05
1.0403061e-05
1.0326264e-05
1.036067e-05
1.0284616e-05
1.0360316e-05
1.0341113e-05
1.0414502e-05
1.027175e-05
1.050401e-05
1.0275973e-05
1.0512733e-05
1.0273643e-05
1.0443129e-05
1.0274977e-05
1.044005e-05
1.1777188e-05
0.00012783238
0.0069924086
0.0022150363
3.6888689e-05
1.0367545e-05
1.023625e-05
1.024269e-05
1.0240402e-05
1.0250207e-05
1.0249643e-05
1.0272837e-05
1.0258158e-05
1.0385571e-05
1.0262343e-05
1.0416015e-05
1.02654e-05
1.0372639e-05
1.0270052e-05
1.0369909e-05
1.1575597e-05
0.0001111714
0.0060278469
0.0018054265
3.2504508e-05
1.0333376e-05
1.0213561e-05
1.0216728e-05
1.02205e-05
1.0222985e-05
1.0224114e-05
1.0230444e-05
1.0234072e-05
1.0326997e-05
1.0295344e-05
1.0448511e-05
1.0316592e-05
1.0476484e-05
1.032967e-05
1.0528767e-05
1.1539452e-05
0.00010827508
0.0048637735
0.0014848773
2.8051302e-05
1.0321225e-05
1.0228459e-05
1.0228235e-05
1.0227201e-05
1.0223608e-05
1.0222493e-05
1.0266333e-05
1.0231648e-05
1.0317081e-05
1.0249145e-05
1.034382e-05
1.0268584e-05
1.0277252e-05
1.0274328e-05
1.0284702e-05
1.1249789e-05
9.5751267e-05
0.0042564914
0.0010845282
2.4750088e-05
1.0322961e-05
1.0232027e-05
1.0247815e-05
1.0249691e-05
1.0261733e-05
1.0272319e-05
1.0334973e-05
1.0336894e-05
1.0448646e-05
1.0370557e-05
1.0470803e-05
1.0401238e-05
1.0490604e-05
1.038663e-05
1.0475978e-05
1.0860513e-05
5.4351946e-05
0.0032878929
0.14949563
0.010023428
0.0011867432
0.00013197368
1.9991325e-05
1.0963977e-05
1.0187375e-05
1.0151636e-05
1.0102037e-05
1.0100505e-05
1.0163499e-05
1.0134496e-05
1.0192297e-05
1.0363417e-05
1.0263879e-05
1.0275278e-05
1.072308e-05
2.160801e-05
0.001637179
0.062277872
0.095596926
0.0074623385
0.0004381636
4.2900524e-05
1.250028e-05
1.0330692e-05
1.0134297e-05
1.0104262e-05
1.007736e-05
1.0093274e-05
1.0206451e-05
1.0114504e-05
1.019793e-05
1.0325912e-05
1.0296629e-05
1.0433595e-05
1.0711067e-05
1.8364626e-05
0.0013822311
0.062118378
0.053081152
0.0028062304
0.00013740917
1.6749395e-05
1.0536011e-05
1.0330451e-05
1.0206941e-05
1.0106643e-05
1.0093227e-05
1.0176606e-05
1.0123591e-05
1.0207179e-05
1.0193296e-05
1.0233335e-05
1.0442049e-05
1.0424081e-05
1.0428581e-05
8.3671751e-06
0.0006926328
0.05972584
0.035300091
0.0010270605
4.2972097e-05
1.1347648e-05
1.0150618e-05
1.0316375e-05
1.0274608e-05
1.0250039e-05
1.0232166e-05
1.0187968e-05
1.0113729e-05
1.0190142e-05
1.0236502e-05
1.0282894e-05
1.0291596e-05
1.0280569e-05
1.0574803e-05
1.2049723e-05
0.00041839271
0.055250564
0.027441094
0.00046184994
1.7283631e-05
1.0455462e-05
1.0165559e-05
1.0201057e-05
1.0288544e-05
1.0290161e-05
1.0116869e-05
1.0201424e-05
1.024726e-05
1.0145875e-05
1.0213939e-05
1.0158068e-05
1.0322518e-05
1.0237279e-05
1.028416e-05
1.4584678e-05
0.00056646195
0.052580744
0.02320757
0.00035966708
1.293687e-05
1.0213378e-05
1.020363e-05
1.0111301e-05
1.0245019e-05
1.0139169e-05
1.0177674e-05
1.0182179e-05
1.0193962e-05
1.0134033e-05
1.007552e-05
1.0166275e-05
1.0176306e-05
1.017729e-05
1.0121304e-05
1.373996e-05
0.00088841569
0.048320896
0.019584648
0.00025920857
1.1647799e-05
1.0122805e-05
1.0122946e-05
1.0090722e-05
1.0152778e-05
1.0133279e-05
1.0100398e-05
1.0088086e-05
1.0148354e-05
1.0237987e-05
1.0189773e-05
1.0202766e-05
1.0159289e-05
1.0246317e-05
1.0368486e-05
2.203322e-05
0.0010240948
0.040691563
0.016962474
0.0002160497
1.1286635e-05
1.0174166e-05
1.0118088e-05
1.0129912e-05
1.0124591e-05
1.0149997e-05
1.0065657e-05
1.0096386e-05
1.0076413e-05
1.0235939e-05
1.0233919e-05
1.0321082e-05
1.0167096e-05
1.0561771e-05
1.0457429e-05
1.3571162e-05
0.0004662668
0.034727061
0.014755458
0.000174538
1.0954844e-05
1.0136851e-05
1.0221969e-05
1.0155653e-05
1.0108299e-05
1.015223e-05
1.0094802e-05
1.0175958e-05
1.0073473e-05
1.0123811e-05
1.0244634e-05
1.0188585e-05
1.026791e-05
1.0389944e-05
1.0261247e-05
1.5256201e-05
0.00058575921
0.028888361
0.013209056
0.00015873933
1.0840238e-05
1.0170864e-05
1.0194966e-05
1.0201101e-05
1.016177e-05
1.017402e-05
1.0080767e-05
1.0232765e-05
1.0077175e-05
1.0130491e-05
1.0225653e-05
1.0195055e-05
1.0534305e-05
1.0420536e-05
1.0472389e-05
1.6345466e-05
0.00047413836
0.025630774
0.012179057
0.00012832626
1.0609205e-05
1.0114504e-05
1.0146337e-05
1.0122854e-05
1.0093899e-05
1.0145905e-05
1.0085475e-05
1.0155161e-05
1.0221965e-05
1.0160841e-05
1.016901e-05
1.0108258e-05
1.0343198e-05
1.0229952e-05
1.0335081e-05
1.3934203e-05
0.00041429707
0.023424009
0.011513546
0.00012720217
1.0493265e-05
1.0122452e-05
1.0099851e-05
1.0074474e-05
1.0092448e-05
1.0085172e-05
1.0083269e-05
1.0089335e-05
1.0143895e-05
1.0186773e-05
1.0206563e-05
1.0123584e-05
1.0279817e-05
1.0243754e-05
1.0289173e-05
1.4181064e-05
0.00037445435
0.023202485
0.010772786
0.00012878959
1.0555836e-05
1.0073501e-05
1.012986e-05
1.0099793e-05
1.0122502e-05
1.0120828e-05
1.0159568e-05
1.009537e-05
1.0115476e-05
1.0180193e-05
1.0221904e-05
1.0279158e-05
1.0427729e-05
1.0319422e-05
1.0508839e-05
1.4730752e-05
0.00044687486
0.02264521
0.010112063
0.00011723006
1.0552341e-05
1.0056909e-05
1.009411e-05
1.0081511e-05
1.0120684e-05
1.0136845e-05
1.0137899e-05
1.0073964e-05
1.0114399e-05
1.0093116e-05
1.0139127e-05
1.0225858e-05
1.0299343e-05
1.0186442e-05
1.0565589e-05
1.4451402e-05
0.00041786799
0.021898953
0.0093946377
0.00011151322
1.0472175e-05
1.0069023e-05
1.0062111e-05
1.0052998e-05
1.0082304e-05
1.009279e-05
1.0123859e-05
1.0086043e-05
1.0125866e-05
1.0086162e-05
1.0151688e-05
1.0134342e-05
1.0193592e-05
1.0115476e-05
1.0579006e-05
1.5004339e-05
0.00036963823
0.021587174
0.0085503229
0.00010691061
1.0515769e-05
1.0098255e-05
1.0070331e-05
1.0133643e-05
1.0080878e-05
1.0093238e-05
1.0143819e-05
1.0083254e-05
1.0180413e-05
1.0121989e-05
1.0159263e-05
1.0177508e-05
1.0252762e-05
1.0309717e-05
1.0509964e-05
1.5093445e-05
0.00040463073
0.020777459
0.0077959275
9.7634519e-05
1.0446586e-05
1.0063228e-05
1.0100045e-05
1.0091314e-05
1.0089153e-05
1.0082561e-05
1.0073477e-05
1.0074529e-05
1.0133297e-05
1.0100364e-05
1.0235428e-05
1.0290363e-05
1.0304689e-05
1.0269605e-05
1.037835e-05
1.2999039e-05
0.00039861621
0.019591252
0.0071067666
8.7819508e-05
1.0369664e-05
1.0066369e-05
1.0085069e-05
1.0068947e-05
1.0058652e-05
1.006268e-05
1.0105165e-05
1.0100718e-05
1.0124033e-05
1.0057683e-05
1.0118744e-05
1.0175379e-05
1.0114484e-05
1.0155989e-05
1.0173732e-05
1.4374712e-05
0.000346918
0.018418453
0.0064188599
8.3603234e-05
1.0437664e-05
1.0093242e-05
1.0088567e-05
1.0113247e-05
1.0109116e-05
1.008172e-05
1.0117197e-05
1.0095392e-05
1.0161306e-05
1.0062217e-05
1.0150019e-05
1.0094024e-05
1.0186332e-05
1.0082349e-05
1.037038e-05
1.2149669e-05
0.00025555094
0.01710248
0.0058739844
7.762103e-05
1.0362211e-05
1.0053482e-05
1.0050558e-05
1.0051168e-05
1.0054925e-05
1.0087512e-05
1.0064739e-05
1.0086016e-05
1.0068968e-05
1.0052287e-05
1.0181574e-05
1.0149451e-05
1.0258831e-05
1.0110701e-05
1.0308225e-05
1.3431951e-05
0.00033223943
0.015578332
0.0052757745
6.9157511e-05
1.0313014e-05
1.0066378e-05
1.007004e-05
1.0064337e-05
1.0059401e-05
1.0082254e-05
1.0064265e-05
1.0057069e-05
1.0112493e-05
1.0092727e-05
1.0090829e-05
1.010629e-05
1.0113503e-05
1.0208111e-05
1.0306237e-05
1.2764489e-05
0.00022993143
0.014028219
0.0047697786
6.4346534e-05
1.028001e-05
1.0062767e-05
1.0050181e-05
1.0040987e-05
1.0052028e-05
1.0040783e-05
1.0080579e-05
1.0060032e-05
1.0114125e-05
1.0058568e-05
1.0122441e-05
1.0084455e-05
1.0206644e-05
1.0095827e-05
1.0211815e-05
1.2157172e-05
0.00024337313
0.012577836
0.0042199333
6.0098106e-05
1.0291538e-05
1.0072375e-05
1.0055577e-05
1.0048354e-05
1.004478e-05
1.0059709e-05
1.0056961e-05
1.0042208e-05
1.0125928e-05
1.0049822e-05
1.011736e-05
1.009635e-05
1.0159155e-05
1.0209088e-05
1.0287968e-05
1.1909337e-05
0.00017143892
0.011168541
0.0037339451
5.3101447e-05
1.0287324e-05
1.0070978e-05
1.0062284e-05
1.0074566e-05
1.0073821e-05
1.0063203e-05
1.0040443e-05
1.004137e-05
1.0069831e-05
1.0092798e-05
1.0139124e-05
1.0088014e-05
1.013632e-05
1.0273168e-05
1.0227115e-05
1.186994e-05
0.00018744406
0.009750623
0.0032682241
4.8520228e-05
1.0241951e-05
1.0081607e-05
1.0083728e-05
1.0078117e-05
1.0081472e-05
1.0062966e-05
1.0043591e-05
1.0042087e-05
1.0073844e-05
1.0060149e-05
1.0184589e-05
1.0072473e-05
1.0112564e-05
1.0142734e-05
1.0274806e-05
1.1781286e-05
0.00014929208
0.008454916
0.0028021075
4.4200279e-05
1.0227082e-05
1.004111e-05
1.0049724e-05
1.0045155e-05
1.0078286e-05
1.0066508e-05
1.0062591e-05
1.0058012e-05
1.006239e-05
1.0050203e-05
1.0102361e-05
1.006387e-05
1.0173267e-05
1.0066563e-05
1.0325876e-05
1.1817324e-05
0.00013671185
0.0072765241
0.0023865527
3.8507854e-05
1.018985e-05
1.0082143e-05
1.0079732e-05
1.0043178e-05
1.0083896e-05
1.0077215e-05
1.0052463e-05
1.0038081e-05
1.0098201e-05
1.0042108e-05
1.0071535e-05
1.0096743e-05
1.0153111e-05
1.0080166e-05
1.012303e-05
1.1606132e-05
0.00012383227
0.0062902842
0.0019694701
3.3454132e-05
1.0200798e-05
1.0055485e-05
1.0055649e-05
1.0046146e-05
1.0051106e-05
1.0049554e-05
1.0098076e-05
1.0089151e-05
1.0115901e-05
1.0074193e-05
1.0104225e-05
1.0080111e-05
1.0127181e-05
1.0074069e-05
1.0158356e-05
1.129131e-05
0.00010243536
0.0051206011
0.0016452348
2.9482686e-05
1.0159797e-05
1.0060728e-05
1.0058447e-05
1.0067914e-05
1.0074179e-05
1.0068333e-05
1.0085118e-05
1.006405e-05
1.0072832e-05
1.0052041e-05
1.0066275e-05
1.0047952e-05
1.0071436e-05
1.0048522e-05
1.0094063e-05
1.1056919e-05
9.6565446e-05
0.0044621458
0.0012310802
2.606272e-05
1.0155491e-05
1.0045964e-05
1.0049334e-05
1.0040105e-05
1.0051664e-05
1.0043488e-05
1.0051178e-05
1.0048417e-05
1.007389e-05
1.0086249e-05
1.0121274e-05
1.0120671e-05
1.0125685e-05
1.0125178e-05
1.0176202e-05
1.0700048e-05
5.684814e-05
0.0036787167
0.15033941
0.0090267979
0.0011240409
0.00012481469
1.908144e-05
1.0781331e-05
1.0253444e-05
1.0143231e-05
1.0136401e-05
1.0092244e-05
1.011908e-05
1.0135566e-05
1.0103678e-05
1.0206452e-05
1.0217756e-05
1.0357168e-05
1.0889784e-05
3.6797622e-05
0.00041187286
0.062374059
0.097783101
0.0069714195
0.00038437515
3.964364e-05
1.2286379e-05
1.0232597e-05
1.0193434e-05
1.0098315e-05
1.0085772e-05
1.0078976e-05
1.0144992e-05
1.0110414e-05
1.0107995e-05
1.0170826e-05
1.0290681e-05
1.0235176e-05
1.0364963e-05
6.548302e-05
0.0038010865
0.063381409
0.053888783
0.0029334874
0.00012890517
1.6232956e-05
1.0438768e-05
1.0144189e-05
1.0199507e-05
1.0183382e-05
1.0194826e-05
1.0070883e-05
1.0084624e-05
1.008325e-05
1.0127228e-05
1.0195962e-05
1.0381279e-05
1.0183867e-05
1.0084968e-05
1.7000952e-05
0.0036760751
0.06278939
0.035950531
0.00096842238
4.0696422e-05
1.1376348e-05
1.0224946e-05
1.0208306e-05
1.0135412e-05
1.0198114e-05
1.0200592e-05
1.0095678e-05
1.0116508e-05
1.00903e-05
1.0123687e-05
1.0212629e-05
1.0283226e-05
1.0282407e-05
1.0533927e-05
1.1015963e-05
0.003240779
0.056330556
0.028309472
0.00057596367
1.8624214e-05
1.0303275e-05
1.0164924e-05
1.0129391e-05
1.0182049e-05
1.0226362e-05
1.0102144e-05
1.0233895e-05
1.0119128e-05
1.0207106e-05
1.0087036e-05
1.0282088e-05
1.0235513e-05
1.0401638e-05
1.2407644e-05
0.00012921223
0.0019530499
0.050403744
0.023538854
0.00034464886
1.3145786e-05
1.0121346e-05
1.0171848e-05
1.0089434e-05
1.0193212e-05
1.0160597e-05
1.0211626e-05
1.0230108e-05
1.0259207e-05
1.0195648e-05
1.01856e-05
1.0180044e-05
1.0144553e-05
1.0311946e-05
1.0352379e-05
3.9437582e-05
0.0012662907
0.047429813
0.020457281
0.00026054918
1.1575733e-05
1.0090905e-05
1.0121219e-05
1.008614e-05
1.019554e-05
1.0116341e-05
1.0100713e-05
1.0149501e-05
1.0181521e-05
1.0206873e-05
1.0207178e-05
1.0149609e-05
1.0198743e-05
1.0149656e-05
1.0457861e-05
2.0417833e-05
0.0006026021
0.041771234
0.018064296
0.0002253592
1.1173937e-05
1.0058378e-05
1.0085801e-05
1.0106705e-05
1.0200045e-05
1.007425e-05
1.0083745e-05
1.0109853e-05
1.0129254e-05
1.0147112e-05
1.0408599e-05
1.0178591e-05
1.0168568e-05
1.0291972e-05
1.0423524e-05
1.3135986e-05
0.00052131617
0.036056865
0.015846529
0.00018676157
1.0863877e-05
1.006111e-05
1.0055862e-05
1.0059705e-05
1.0079465e-05
1.0181154e-05
1.0076769e-05
1.0107988e-05
1.017562e-05
1.0124733e-05
1.0301761e-05
1.0169013e-05
1.0190671e-05
1.0181363e-05
1.0293095e-05
1.1753197e-05
0.00028461573
0.030730994
0.014296443
0.00016654857
1.0799622e-05
1.0085925e-05
1.0115143e-05
1.0060194e-05
1.0160555e-05
1.0115273e-05
1.0046331e-05
1.0064544e-05
1.0109608e-05
1.0180372e-05
1.0236517e-05
1.01941e-05
1.0113759e-05
1.0191737e-05
1.04364e-05
1.6843715e-05
0.00049216833
0.027306784
0.013167302
0.00014425259
1.0648096e-05
1.0091183e-05
1.0125993e-05
1.0106763e-05
1.0127586e-05
1.0106809e-05
1.0055306e-05
1.0155938e-05
1.0142988e-05
1.0247755e-05
1.0143145e-05
1.0199981e-05
1.0165821e-05
1.0302904e-05
1.0330707e-05
1.7819673e-05
0.00062470603
0.025684715
0.012348507
0.00013573435
1.052284e-05
1.0087912e-05
1.0110891e-05
1.0136077e-05
1.007282e-05
1.0079349e-05
1.0058874e-05
1.0172196e-05
1.0148071e-05
1.0256932e-05
1.0184733e-05
1.0111357e-05
1.0104461e-05
1.0218721e-05
1.042626e-05
1.3522832e-05
0.00039098821
0.024640579
0.011562215
0.00013331079
1.0565455e-05
1.0058664e-05
1.005885e-05
1.0068799e-05
1.0053419e-05
1.0070161e-05
1.0148795e-05
1.0194027e-05
1.0108187e-05
1.0136384e-05
1.028425e-05
1.0149278e-05
1.0112408e-05
1.0252235e-05
1.0257164e-05
1.5803044e-05
0.00042844377
0.023747056
0.0109232
0.00012587157
1.0527682e-05
1.005799e-05
1.0093097e-05
1.0051755e-05
1.0108209e-05
1.0082994e-05
1.0117019e-05
1.013726e-05
1.0152429e-05
1.0207387e-05
1.0281889e-05
1.0258103e-05
1.0211439e-05
1.0266112e-05
1.0241057e-05
1.6018531e-05
0.00048175613
0.023449781
0.010120186
0.00012034069
1.0514843e-05
1.0077492e-05
1.0098526e-05
1.0076338e-05
1.0108679e-05
1.0105477e-05
1.008971e-05
1.006119e-05
1.0185873e-05
1.0152948e-05
1.0232291e-05
1.014601e-05
1.0297363e-05
1.0254202e-05
1.0424667e-05
1.4340624e-05
0.00041648367
0.022507456
0.0091143982
0.00011594087
1.0556149e-05
1.0067422e-05
1.0083416e-05
1.0105434e-05
1.0095909e-05
1.0109844e-05
1.0123106e-05
1.0086349e-05
1.0104911e-05
1.0150447e-05
1.0232521e-05
1.0076759e-05
1.0216831e-05
1.0169179e-05
1.0413388e-05
1.3903004e-05
0.00043255878
0.021499886
0.0083093859
0.00010531906
1.047044e-05
1.0045231e-05