/*--------------------------------*- C++ -*----------------------------------*\
| =========                 |                                                 |
| \\      /  F ield         | OpenFOAM: The Open Source CFD Toolbox           |
|  \\    /   O peration     | Version:  1.7.x                                 |
|   \\  /    A nd           | Web:      www.OpenFOAM.com                      |
|    \\/     M anipulation  |                                                 |
\*---------------------------------------------------------------------------*/
FoamFile
{
    version     2.0;
    format      ascii;
    class       volScalarField;
    location    "0.003";
    object      omega;
}
// * * * * * * * * * * * * * * * * * * * * * * * * * * * * * * * * * * * * * //

dimensions      [0 0 -1 0 0 0 0];

internalField   nonuniform List<scalar> 
206988
(
5994.4068
532.42904
432.01266
416.64656
414.93858
414.7858
414.76599
414.80319
414.76075
414.74946
414.70881
414.68436
414.72973
414.85134
415.12372
415.76386
413.17549
414.11769
434.934
5209.0137
5495.6965
479.55832
411.87721
406.70131
406.51527
406.7945
407.19178
407.67748
408.18751
408.83181
409.56233
410.23784
410.79841
411.31908
411.64369
412.00076
411.84997
412.18107
418.3369
5198.6695
5205.8341
433.26904
407.94406
406.65561
406.85535
407.19103
407.59077
408.13122
408.72898
409.46763
410.02053
410.8544
411.75062
412.89388
411.58254
412.55414
412.61061
413.2071
431.84661
5189.9768
5079.4405
425.11648
415.96756
415.62428
415.62807
415.60416
415.51066
415.38687
415.55036
415.17114
414.28703
414.35046
416.1364
416.41499
414.42163
415.59009
414.08298
414.65425
419.33923
5154.7925
5015.5212
409.50147
405.58088
405.74124
405.99966
406.26693
406.6983
406.47941
408.53581
407.13016
410.2042
411.28396
408.77971
408.4426
414.14628
412.07043
413.77054
413.50069
425.99952
5125.6659
4982.2627
408.05026
405.59504
405.81837
406.1108
406.44269
406.96912
407.38455
408.6109
410.18725
406.86185
407.12613
414.13417
411.39933
413.51534
412.7448
413.48723
413.57536
419.01952
5089.8177
4956.4108
418.15173
415.92336
415.87747
415.85007
415.8375
415.82051
415.77082
415.73738
414.93918
416.04861
414.56186
416.78899
415.86839
416.22177
415.86689
416.01746
415.97653
417.22852
5038.4675
4933.058
408.07927
406.72953
406.97032
407.28122
407.6434
408.00792
408.46844
408.75708
408.87566
411.25115
411.56497
411.67035
412.53572
413.16666
413.43165
413.8099
414.19627
422.88084
4990.8648
4918.3642
407.609
406.48767
406.70967
406.99296
407.31521
407.73189
408.09108
408.41249
408.36593
410.99992
410.53209
411.67618
411.42174
412.99044
412.85774
413.08399
413.28355
419.10455
4954.4611
4907.5297
416.53801
415.43653
415.40405
415.48503
415.43467
415.38508
415.20906
415.62834
415.83366
414.84889
415.19895
415.46379
415.07146
415.4286
414.63945
416.45545
415.83408
419.98507
4925.5387
4901.6905
416.52029
415.47291
415.41495
415.38304
415.14748
415.6185
415.33552
415.3106
414.53049
416.01374
415.70575
415.26672
415.35818
415.41512
415.23775
415.49598
415.41301
418.13201
4910.7041
4897.7102
407.31062
406.60668
406.80266
407.03013
407.2745
407.88109
408.20244
408.556
408.66888
410.60831
410.7352
411.86708
412.01715
412.21657
412.61984
412.78748
413.10879
416.26663
4911.8346
4894.7968
407.65039
406.9373
407.16767
407.40949
407.67685
408.14825
408.3091
409.53282
409.81773
411.03723
412.19367
411.48805
412.27108
413.3064
413.51492
413.75724
414.01631
416.98506
4910.9267
4890.6107
417.2003
416.25253
416.21864
416.16829
416.0777
416.33327
416.33889
415.96433
415.57268
416.8649
417.19688
415.28584
416.11381
415.62997
415.83615
415.8843
415.95211
419.65267
4909.9144
4885.7135
406.67008
406.03953
406.29773
406.60634
406.92878
407.36792
408.15543
409.02035
409.75386
409.9665
410.75319
412.1086
412.44876
412.42555
412.81243
413.22809
413.51404
417.34117
4906.714
4880.3934
406.63207
406.0452
406.30098
406.57496
406.87684
407.31389
407.6214
409.19534
409.05639
410.71452
411.58392
411.37039
412.19277
412.46652
412.91247
413.28547
413.59492
416.70181
4901.9081
4874.8981
417.08126
416.28178
416.19182
416.12554
415.93762
416.59745
416.53478
416.373
417.31102
415.18088
416.82072
415.34782
415.9099
415.91611
416.02031
415.93591
416.00398
419.19081
4895.5327
4870.2297
407.49234
407.01353
407.19107
407.46573
407.56346
408.55582
408.596
409.34504
408.66854
412.4668
412.03349
412.32365
412.69772
413.19517
413.46366
413.91302
414.16607
417.2783
4888.711
4865.9541
407.20746
406.75987
406.96407
407.18
407.32323
407.67888
407.22819
409.88329
409.36678
411.05062
411.02814
411.82408
411.95593
412.61055
412.78794
413.0472
413.26423
416.05141
4879.864
4862.6714
416.36649
415.7597
415.74078
415.68459
415.65222
415.57708
415.03295
416.05474
414.59123
416.77762
415.34204
416.22711
415.62821
415.8034
415.60897
415.56221
415.5298
418.1407
4870.0717
4858.3239
416.35739
415.80964
415.79631
415.76536
415.70307
415.77365
415.63421
415.78101
415.27819
416.30756
415.78887
415.80764
415.63324
415.83511
415.67478
415.68766
415.6422
418.04266
4860.5332
4854.0582
407.14038
406.8617
407.08744
407.35462
407.62186
408.12538
408.38189
409.32557
409.50384
410.8719
411.13068
411.78808
412.08496
412.71136
412.93077
413.2695
413.48346
415.46553
4849.7865
4850.8054
407.35657
407.13193
407.36449
407.7281
408.05561
408.49969
409.00491
409.66721
410.66125
410.67841
411.66965
412.30717
412.77988
413.37179
413.6979
414.04001
414.32188
416.42163
4839.4477
4846.4074
416.7934
416.3877
416.35394
416.35973
416.28244
416.29177
415.90907
416.66152
416.11631
416.47499
416.2269
416.12766
416.09234
416.1233
416.09772
416.0383
416.04994
417.56295
4829.9491
4843.366
406.2662
406.16274
406.43075
406.73451
407.12325
407.56645
408.2202
408.53457
409.42777
410.14523
410.92403
411.54826
412.06883
412.51672
412.89507
413.22463
413.50474
415.06907
4820.3323
4839.7076
406.20386
406.12873
406.37859
406.75346
407.08665
407.53121
407.97195
408.75012
409.4122
410.18143
410.92274
411.53983
412.06443
412.51189
412.87097
413.20627
413.49168
414.90408
4811.2679
4836.2406
416.66545
416.40588
416.40288
416.36408
416.36425
416.32433
416.32354
416.24085
416.23406
416.17837
416.14543
416.10003
416.06124
416.02849
416.00065
415.98563
415.98614
417.06359
4804.1224
4833.2426
407.11966
407.13496
407.371
407.68951
408.03033
408.43362
408.93152
409.50797
410.208
410.95038
411.66867
412.26446
412.77644
413.20277
413.57489
413.88147
414.16388
415.26796
4794.7681
4830.737
406.80138
406.83872
407.07586
407.34915
407.67835
408.06036
408.52351
409.0597
409.70746
410.39231
411.04449
411.57945
412.03868
412.42184
412.75251
413.02996
413.26705
414.34177
4789.807
4827.1812
415.90831
415.77444
415.76336
415.76053
415.74727
415.72657
415.71124
415.68025
415.6657
415.6275
415.60116
415.5713
415.55419
415.53154
415.51382
415.50008
415.49277
415.99704
4784.2529
5863.2923
1505.6067
315.46681
85.048812
55.464418
39.633663
47.620163
40.961876
43.879283
37.878891
43.607828
50.286539
48.714752
50.479535
63.022144
77.82565
98.226537
83.981494
484.72741
5209.2737
5504.7588
1161.3401
171.49332
56.182794
35.918848
36.171149
37.435955
35.187592
39.698355
36.757604
40.098286
42.284549
51.390847
45.14829
58.050008
66.793239
86.523279
91.027021
477.24811
5214.2634
5210.2145
742.73414
107.87986
53.533115
45.04705
46.49017
43.58434
45.062048
45.777405
46.624557
46.156022
45.274772
52.004398
52.772228
57.835052
51.497185
68.242409
81.186628
485.98942
5205.8054
5079.2185
472.87036
61.09564
49.818389
43.585052
48.770196
44.628605
48.579594
39.847162
47.588555
33.532673
52.455181
58.473178
60.133909
56.553178
52.024152
67.52691
104.65413
491.06934
5164.0104
5022.9009
395.58376
38.673806
31.887046
32.984441
36.328158
33.662052
43.526224
33.177128
45.556136
38.457583
51.621136
44.147791
70.029149
48.77453
51.375633
67.556598
74.511275
534.97463
5120.3179
4986.8347
373.19909
48.363756
43.223501
42.736129
39.902067
45.373062
38.730419
43.556683
43.575199
42.010478
49.790765
46.248208
58.286751
50.905986
46.624281
71.299707
84.313927
621.32708
5093.1595
4959.7083
346.98376
45.02819
38.936415
37.907751
36.050278
41.725128
34.790213
42.636948
42.871619
41.817954
51.86439
46.381345
56.301779
44.811488
63.950348
63.640713
84.42615
478.5105
5050.6037
4939.0018
309.23636
32.178161
25.476196
28.669339
24.709417
29.39684
25.040336
31.542126
30.902581
35.547787
38.579325
47.752156
50.352909
46.847582
55.904004
60.98533
65.691259
401.61755
4999.4053
4923.6952
293.35602
41.83956
36.724887
36.12338
34.25255
33.617283
28.069553
37.281824
28.77224
35.065058
43.014775
37.893361
43.925821
52.736063
54.449155
74.325411
77.160023
492.80403
4960.797
4912.2476
299.3679
35.972114
32.372342
34.752727
31.973644
34.590778
31.563373
33.179699
28.343008
39.030934
39.738847
40.970167
43.859942
53.062245
63.816922
67.581115
85.502026
478.29422
4934.4071
4905.823
283.07926
31.845425
30.942691
30.998496
31.298246
33.069902
27.931039
35.786212
29.097046
34.011349
40.052874
43.958799
45.488219
49.016521
57.925908
57.653241
81.349632
504.86602
4921.4501
4901.5081
273.18047
28.041581
25.182678
25.125845
24.919526
29.037411
24.576285
31.833246
29.307317
31.821393
35.621311
42.12806
44.880463
49.272627
56.330896
57.357054
73.832965
503.38187
4922.4035
4896.968
264.13128
34.024437
31.258177
30.905924
31.266162
33.079153
28.719249
35.302205
27.665852
37.536467
32.511809
41.202446
40.483669
47.180713
57.880024
56.312673
63.207298
453.60178
4920.5666
4893.4792
268.89866
31.525722
29.153314
29.754696
28.105649
31.476646
23.342627
36.826143
28.131822
36.453838
30.699706
41.359521
40.518031
48.2892
49.541679
56.633512
59.25823
499.52673
4917.9151
4887.7187
254.92383
25.3126
20.301213
21.830936
20.549743
21.47635
23.688862
24.695126
28.835294
25.142003
35.589072
33.182074
36.435797
46.487456
47.016163
55.44679
69.641621
475.43387
4915.5944
4881.5153
250.14265
31.108019
28.388369
28.826339
27.983385
29.638776
27.137576
32.219589
23.114152
33.053159
25.998714
37.267473
36.66277
44.530397
44.360006
52.283125
66.010813
464.24537
4910.648
4876.3379
253.58067
27.905587
25.367927
26.79512
25.076406
26.99328
24.990528
27.609059
23.791348
30.977482
31.352038
36.864874
35.529597
44.673663
42.853578
50.528311
58.334764
456.14507
4902.8816
4871.0341
238.60835
22.265043
20.015614
20.383621
20.546729
20.567234
20.511585
23.247021
22.787096
28.81981
23.258811
35.347072
28.657755
38.572238
38.610197
48.792377
55.531902
452.87894
4894.865
4866.6044
236.82662
26.722504
25.513686
23.702264
25.140322
25.524288
24.032129
24.108502
23.496129
26.52002
27.847251
33.110775
30.391891
35.851762
34.149112
44.662022
58.463531
421.48683
4885.3418
4862.5758
233.21205
23.535358
22.318411
22.042188
22.96654
22.924703
27.334041
22.19554
30.870102
23.460473
30.103949
30.409573
37.137922
34.706788
39.548171
42.639512
55.307015
447.58988
4874.8835
4859.0188
225.84776
22.544693
19.597031
20.474335
21.351388
18.998457
22.838236
19.22567
23.92032
18.87454
25.810262
26.080266
31.311799
30.279349
35.293788
38.209654
52.719205
422.84483
4863.6557
4854.9212
222.44142
21.328361
19.696816
19.642315
19.787171
19.498655
22.824936
18.641322
24.010514
21.817691
24.680699
25.696053
27.757397
30.946959
30.807586
38.013204
54.21953
411.67174
4852.7689
4850.8047
221.07793
22.980223
20.642101
21.165186
20.96486
20.240907
21.464075
19.866599
22.28223
24.649805
24.716054
27.217321
28.732037
31.75025
32.784556
36.29608
57.950584
403.01989
4842.0358
4847.0456
216.16469
22.661166
20.593624
20.376352
21.283361
20.796354
21.436566
20.183962
20.886026
23.091715
22.144807
26.276158
27.294415
31.159782
30.672026
34.688293
52.931609
417.0677
4830.9609
4843.8096
210.86348
18.406731
15.913567
15.743003
16.266739
16.240321
15.593353
17.451305
16.919885
19.530081
18.862236
21.518115
21.049061
25.133282
24.72398
27.238001
50.170697
407.41129
4821.3263
4839.7472
213.24484
21.333733
19.541459
19.834045
19.261148
19.702626
19.726835
20.21019
19.15901
21.148216
19.569345
22.093299
19.974326
22.25261
21.038798
23.460322
47.861008
391.53963
4812.259
4836.7344
204.20763
19.752228
17.556027
17.450313
17.478721
17.218409
17.516645
18.18937
18.563985
19.473602
18.8679
20.38153
19.520786
20.787231
20.37892
23.329693
42.502025
389.60995
4804.3105
4833.5156
205.06457
18.461048
16.030367
15.869907
16.074195
16.417406
16.221342
16.444753
16.480803
17.332909
18.200639
19.797506
19.871193
21.378462
21.448142
23.81737
38.214508
401.79817
4795.4008
4830.9359
202.89435
20.146173
17.763937
17.786905
17.590392
17.705294
17.780683
17.537898
17.465955
18.186931
18.055699
18.78029
19.019378
19.263093
19.784632
20.234391
33.443291
402.38125
4790.7477
4827.8455
213.8145
19.157021
16.259349
16.321212
16.415138
16.53467
16.681322
17.624869
17.916782
18.966366
19.18741
20.438194
21.556409
22.063819
22.585135
23.191737
33.478368
346.42029
4782.7015
5869.9713
1610.0487
330.65458
68.233206
24.232431
22.446926
12.534579
11.371561
6.6058964
6.4840078
10.346621
8.4645032
12.162438
24.328149
24.986617
25.76783
53.961219
49.977067
580.275
5204.5574
5511.7076
1196.6465
173.89088
29.988383
16.276483
17.806717
11.999502
9.533076
5.3085676
6.9117787
13.437211
8.4329845
15.331475
19.925612
27.111396
31.359166
56.304881
51.862413
566.78784
5204.8992
5211.6256
727.38187
75.053448
15.228866
12.898224
20.422983
15.393761
9.8411714
8.549355
11.850012
10.449705
15.014623
22.40266
17.116763
38.85134
30.027139
47.224156
44.878809
518.71049
5189.913
5081.2654
488.8135
37.756264
9.8026885
10.430309
18.51778
18.584861
15.593875
16.424956
12.564877
13.578356
21.087245
20.755681
22.641385
30.120486
25.944882
50.936368
30.173919
475.30647
5159.0118
5023.1175
389.74034
20.737026
14.401092
12.660665
12.802015
18.310893
16.309609
9.9591725
12.468538
25.135956
17.350062
17.791555
18.561615
26.580287
28.970582
35.55157
49.024227
457.09597
5140.7731
4991.55
373.65126
18.610888
11.988931
13.845075
8.6361009
15.48734
9.3626576
15.13625
14.500504
17.416408
12.741545
10.530766
20.164626
24.441171
22.455252
25.927553
60.50513
521.65907
5111.1325
4965.1602
340.58411
12.948114
8.8699676
10.361445
7.1707573
10.840611
9.5899347
10.254609
8.933024
12.904583
19.626804
17.009935
23.870284
23.20581
28.816082
34.347929
54.427624
544.93269
5056.2813
4946.1557
313.67158
13.711511
10.8733
10.417878
8.8660004
9.4328368
11.730483
6.3443209
8.098614
9.413832
20.769607
22.234196
30.054511
23.409177
48.510541
36.623896
57.188422
449.21267
5013.0677
4929.6842
296.91498
11.422173
8.4694156
13.402067
11.133982
9.3852076
11.658668
7.8729793
14.386311
10.110565
14.73212
23.63302
22.332691
30.717538
36.388744
30.5161
60.777576
503.93902
4970.6384
4918.6091
285.92643
9.9330429
10.008061
11.930321
12.284421
10.789409
11.863757
7.2969582
16.119353
10.270178
13.037261
23.151829
20.744407
39.001483
36.068955
33.953103
67.041198
513.2202
4947.1505
4911.0639
266.17485
10.007628
7.9946942
9.9327722
8.4843271
6.8580298
9.9735199
7.3270109
13.662363
16.686803
15.422721
18.011562
15.388717
30.386189
27.667579
30.401252
51.928943
495.12021
4931.5977
4906.6676
264.8474
8.8455815
7.6180679
6.9891944
4.6615992
6.4452293
5.9915119
7.9868796
7.3919795
13.915755
16.541063
19.541189
16.18299
26.993316
26.495605
29.181145
53.18064
472.11771
4931.0417
4901.3391
266.43085
7.3488948
4.9029135
7.7928777
6.6902633
8.2259877
7.7353923
11.463753
8.4710861
10.720742
16.419463
19.85394
24.702055
31.506938
32.022246
35.300366
43.8393
453.07981
4927.6981
4896.3543
254.45935
9.5202228
3.8779383
6.7109682
5.9155951
7.8302984
8.9088294
10.002649
6.9149255
10.647694
10.479801
13.449997
21.530033
28.719659
25.855638
38.273875
36.562551
476.78743
4923.0225
4891.1088
251.1243
7.6574522
4.1764042
4.1922105
4.087734
5.7994846
6.1018007
8.7267163
5.9728674
11.701289
8.93216
15.112696
14.484281
18.547886
16.351698
37.978302
41.883459
474.01697
4921.4721
4884.9156
247.93839
8.6370699
5.4784512
4.5949268
7.2866673
5.6417449
6.3670594
9.2239395
6.5739713
12.268436
12.798603
15.757789
18.569471
21.03982
25.111264
37.020601
46.218304
470.80825
4916.037
4878.6621
239.99544
6.1161723
4.1803236
5.797329
5.963511
5.8997666
5.6845848
5.2211053
5.1332565
11.09928
11.020904
18.272351
21.805541
21.694965
21.449514
27.742545
34.587758
456.97172
4907.6132
4873.861
231.2433
6.0187495
4.2856932
5.0959482
4.5409771
4.0354806
4.0096383
7.3893506
6.2593197
10.358436
7.2447054
10.732204
14.039678
12.964
14.261113
19.03042
32.766419
451.83036
4899.0326
4868.6993
230.61447
7.8023022
5.2188616
5.3044728
6.1834764
6.3086903
4.9277436
7.5701049
6.5893429
10.883625
6.6577316
11.384644
10.554798
15.594975
11.137003
24.978304
27.798342
434.81981
4889.4649
4865.0632
226.11176
5.9308212
3.2270081
3.0910386
3.2001841
3.5971141
5.2356771
4.5826922
5.9605925
6.3601907
5.4850681
13.675554
13.84123
18.194785
12.065374
21.239373
26.469381
461.40048
4878.0315
4860.7639
215.29399
5.3139352
3.7895385
3.9185765
3.6790973
3.8677832
5.112305
4.1457355
4.1850452
8.208622
6.9283442
8.6470817
10.471401
12.892676
17.728053
20.742816
35.2708
409.61614
4866.2542
4857.1426
214.13254
4.6276623
3.4174019
2.8466655
2.2764875
2.9666203
2.6240964
4.3790543
4.0603931
7.6671986
5.8657934
9.9142002
9.3158069
14.584484
12.971323
20.112822
30.912576
432.12065
4855.2725
4852.4192
213.83617
5.6040451
3.7597843
3.1765515
2.9078349
2.9721221
3.542299
3.7903252
3.1996857
7.7998505
4.555676
9.461316
8.6709406
11.613956
15.893125
19.077722
31.123046
398.53409
4844.3454
4848.5289
205.23874
5.7759074
3.5046959
3.2181163
3.6555783
3.7592689
3.4677454
2.7675749
2.7331262
4.8260621
6.0722326
8.8011229
8.6123814
10.547773
19.073069
17.404025
29.622427
411.16517
4833.4247
4845.4365
208.61397
5.6754589
3.7543162
3.9384021
3.9021555
4.2232962
3.9730276
2.8305916
3.3047982
5.1269042
5.546876
10.108542
9.2246182
10.029849
14.477879
19.764913
32.933116
390.09021
4823.2987
4841.5399
204.77772
5.0117707
2.0308553
2.490277
2.3427979
3.6155313
3.5396494
3.5556145
3.6143071
3.9862383
4.6494888
7.1154346
7.9560794
11.42575
10.290504
19.010708
33.837907
389.26919
4814.0732
4837.9916
199.22441
4.7959459
3.4092475
3.5400033
2.3810857
3.7853254
3.8325377
3.1400845
2.6667843
5.1957304
3.9873243
5.251863
6.5980164
10.22025
8.9698811
10.587461
30.003901
388.78657
4806.3605
4834.8867
195.31307
5.4924541
2.9434139
3.0401716
2.8188014
3.0405864
3.0567229
4.2466
4.5102843
5.7284113
5.0245592
5.9385876
6.5713999
7.8848992
8.4413567
9.7989581
24.198176
384.66582
4797.0674
4832.4395
196.02799
5.0641091
2.9319097
2.8753224
3.1941375
3.3170489
3.2960677
3.7540634
3.2974002
3.8614116
3.2811968
3.7985575
3.8349042
4.5882865
4.4226954
6.3127429
18.60711
398.67934
4791.9429
4828.9223
205.47916
5.1951582
2.2068055
2.1711418
1.9539068
2.4054726
2.2830124
2.4291737
2.3678777
3.31333
4.9629722
6.046692
7.4552543
6.93132
8.834919
9.6803054
21.311772
334.98705
4785.6963
5875.4301
1559.8928
321.96008
63.552504
23.896379
16.3244
16.113549
10.784958
9.5705518
6.1845551
7.8545828
8.0768208
7.4871328
13.449084
19.108155
28.710976
49.735687
43.332489
563.55152
5205.3604
5526.946
1146.3752
157.84729
25.869589
14.861623
10.807148
14.961213
8.3497171
6.6281871
5.4168013
10.652533
7.6470146
9.2576285
14.313291
25.574594
24.047018
44.943726
61.511707
578.24621
5214.2551
5217.7701
751.60225
65.706399
15.387544
9.7951751
11.514688
15.565234
12.964029
15.206613
4.5850912
7.2250601
6.8936424
11.306208
14.737496
39.427676
22.56958
35.531615
54.979891
563.48364
5211.5478
5083.7947
488.67218
34.022719
14.855334
12.923657
13.545525
11.286217
12.717204
17.32244
6.6050648
11.498471
10.43585
15.948937
15.389521
33.950541
23.963129
32.804147
66.93423
626.13524
5166.4278
5029.7686
419.54064
18.833506
9.7464264
12.258551
10.426992
13.947721
14.560142
9.7082939
16.1147
13.897385
20.774558
21.003304
28.093112
28.80645
34.517927
26.576326
47.455578
572.50678
5125.009
4994.3869
361.82104
14.889606
5.8673013
12.221447
8.0049199
13.519837
11.795951
15.783119
18.810242
23.168822
17.42807
16.018122
24.044468
18.300237
32.521094
40.199991
28.359068
539.5302
5105.124
4971.285
329.61075
9.0859787
5.9563754
8.8385902
6.8999199
13.152805
9.5823055
10.26143
13.754023
18.628317
20.588579
22.153677
21.842326
21.471561
25.679331
43.252557
54.466645
507.95701
5064.4812
4954.3632
315.51528
7.5479708
3.8280587
6.4239337
7.4940301
13.136571
6.9911446
8.5998016
9.9142794
13.215776
16.78429
30.213451
21.834943
20.697505
34.22681
37.422043
45.937893
494.81335
5023.044
4938.2612
290.69087
7.3146383
4.0659033
4.2260881
4.3161029
6.8074875
13.200408
7.1320486
7.3771524
15.711936
13.05344
24.837655
18.684908
23.305327
30.470077
33.532296
33.967594
430.78206
4984.4607
4926.8154
279.00123
8.8498523
6.2604004
7.5160397
4.5276463
10.171531
10.037982
4.7048348
5.3206967
11.169537
16.259401
22.193127
23.7168
19.292081
29.914616
32.972804
62.933833
500.27874
4959.7651
4918.5636
272.98278
8.1268142
6.8184738
8.0980057
7.2193265
9.0870311
8.9672649
4.837207
11.663525
13.154397
20.986089
16.09738
20.508503
18.601239
32.327349
29.14519
63.179418
531.40748
4948.7225
4913.0398
268.0545
7.172879
5.9139802
7.3819136
8.5102061
5.7315278
5.513283
4.6968892
11.551744
13.827932
21.846926
19.165666
13.227982
14.237761
24.302247
33.08894
46.833743
465.70001
4941.9322
4907.1627
267.61265
8.9100208
4.2242245
4.7358377
5.317191
4.5279723
5.533697
9.3248326
13.091457
10.985614
14.421657
21.787149
17.246099
15.709337
28.902535
25.040027
43.774614
489.00374
4935.9453
4902.4152
258.72015
6.8394431
3.5366521
6.0065666
3.9542035
7.2390296
6.0010175
8.721888
8.7370516
13.380776
16.649629
20.876162
24.374644
25.23741
29.600457
26.246368
49.472646
504.43269
4934.7847
4896.9232
254.33729
7.3484137
4.8697652
6.2215565
5.2597577
6.8420184
6.0672022
7.6514871
4.8097013
14.48986
11.632774
18.706373
14.961471
24.727057
26.395437
31.807059
40.866876
471.49527
4928.3493
4889.7522
249.99425
7.4821282
4.5858838
5.4905116
6.4765803
6.0767139
7.0728992
8.6374154
5.7370083
10.1746
12.818092
18.553452
10.391445
17.805992
18.176863
29.073546
36.269902
475.30301
4921.3938
4882.9059
243.61196
5.2807415
2.893985
3.337416
3.5714437
5.278526
4.1538244
7.9161434
8.4500837
12.200056
14.300727
17.51838
17.607309
19.417767
14.967814
27.686791
35.347387
455.81622
4913.1248
4877.7584
237.92418
7.0253695
4.3388942
3.5722183
3.1149197
6.6206153
4.2688819
6.4350542
7.0253885
6.9902986
8.2535068
14.282319
15.555251
19.276571
12.713991
27.218815
29.694118
436.41035
4904.3125
4872.6778
230.14151
6.907236
4.472395
5.0308954
4.3678186
5.7573893
5.9786539
6.6994099
7.3416498
7.9913462
5.8474981
11.448989
9.8247535
17.939887
10.902553
25.407689
28.26723
471.3043
4894.9345
4867.6491
236.21044
5.5224535
2.8379844
3.1144369
2.7874962
3.1860478
4.3958553
4.1420461
3.9001556
5.7630268
5.7963552
13.305846
8.7369685
17.699232
10.745939
22.486747
36.8217
435.04761
4882.6043
4863.3771
220.90701
4.8776932
2.6090556
2.7005266
2.9737499
4.3442164
4.6737551
4.4272835
4.365052
7.6351402
9.1982398
10.885817
8.6732859
14.260812
11.562292
22.551268
33.004253
426.46648
4870.0282
4859.0628
222.58471
4.9805817
2.4814316
3.3823275
3.4914739
3.6809267
3.4546462
3.2267245
3.3331349
4.8156098
6.228085
12.30978
7.6202872
15.201944
10.430643
15.261529
31.509192
418.7113
4859.2568
4854.2391
223.64132
6.1465263
3.4007555
3.6415479
3.2963931
2.4296503
2.9211623
3.2254151
3.8969664
4.9329831
4.4844362
7.4886657
9.9746915
14.044348
14.928062
16.750812
28.90332
404.96906
4847.9636
4850.1913
208.67112
5.3833114
3.0795688
3.3976609
3.3710989
3.0767971
2.7017386
3.7393265
2.804398
6.2446014
7.1000783
6.5100743
8.9177449
13.788513
13.340664
17.360742
33.84702
415.26033
4836.7035
4846.7976
210.82687
4.53861
2.1494746
2.1003536
3.2131191
3.2884007
2.444513
2.5290711
2.9119537
4.9755481
7.1371655
7.1183904
10.549077
12.148243
11.708037
14.649342
33.859924
389.61815
4826.0388
4843.3921
206.92643
4.9548378
3.1950349
2.2501362
2.3578468
3.6133474
2.9238509
2.8150171
2.9774572
4.3611088
7.2761812
6.8608587
8.9412315
10.657212
13.095395
17.219922
30.462686
384.32708
4816.4261
4839.6209
198.6984
5.1248681
2.6628387
3.3179924
2.4536331
2.6932403
3.7665077
3.9826742
2.8139145
5.5063049
4.9574986
7.3403862
5.9889898
7.8934242
8.7961695
15.087698
28.792313
383.53128
4808.452
4836.5926
200.98369
5.3253769
2.7565627
2.8117003
2.6023424
2.6505836
2.5583883
2.9507123
2.4367
4.5206068
4.5113854
5.6195995
5.5695679
6.4643998
7.2425906
10.955236
24.025234
392.69676
4798.7658
4833.9492
194.03595
5.1490313
2.6771157
2.4853197
2.5052615
2.5637926
2.6290408
3.4453331
3.1254907
2.761854
2.7151747
3.452571
3.1775569
4.0730313
4.5693235
4.7460929
19.616331
397.84106
4793.0672
4830.3439
206.48531
5.1170193
2.1387216
2.2917713
2.0724503
2.4098367
2.3375646
2.3380253
2.263382
2.84068
4.1157945
5.4333562
6.276848
7.1253842
8.8502899
9.5806964
20.28924
346.07974
4788.9902
5886.6548
1575.9952
300.49001
55.532661
23.739797
14.127186
13.567305
8.1020641
10.860226
6.1395858
6.6586078
7.5998788
10.391207
11.319497
23.836289
31.046001
61.799011
56.198606
531.08378
5212.2947
5534.5937
1206.3351
166.46216
40.82659
15.191311
15.987564
14.996351
10.453324
6.8859633
5.4530174
10.164351
6.7212421
13.298592
11.67657
25.163299
23.356232
42.630534
52.129684
518.2375
5218.2939
5221.6925
756.46463
70.914033
21.090594
19.945334
14.047056
10.476652
9.8353113
7.3650228
5.4941166
14.522116
10.529636
12.159721
11.001204
24.338712
19.412498
29.392241
54.769906
557.67321
5199.1893
5090.2833
503.74576
29.219531
16.084626
14.782794
14.253202
10.787919
13.334167
12.959993
8.631438
17.233213
11.915507
14.545528
11.599022
46.000707
28.373022
22.552756
36.160234
490.4668
5162.4227
5035.6753
399.61976
16.734278
7.6745808
9.5269748
13.48838
13.758568
11.279453
15.627393
10.780365
13.889734
20.083296
32.440682
26.998233
29.160634
34.805259
27.536525
54.323889
604.88617
5136.7482
5004.8644
373.37684
12.797768
7.6684206
9.3064988
10.621594
11.824352
12.810541
11.000415
10.520361
11.576622
19.598494
23.065541
28.643851
29.12325
30.489729
41.820488
54.658564
599.53541
5107.9297
4982.533
328.80742
8.8449009
5.9955871
10.73023
6.6907249
7.9640508
8.3917442
8.9273143
9.108509
13.366408
18.840045
14.129726
21.977621
28.838107
43.445172
46.601754
42.812932
483.20947
5066.1491
4964.3262
323.9566
10.243205
4.9799941
7.6059261
9.8180779
6.7402441
5.6557102
10.715926
12.2216
14.688011
17.036156
12.761484
24.929725
27.688185
40.089719
45.939293
42.060429
498.80923
5031.5035
4948.7303
316.36415
11.143759
3.562521
8.8908712
8.2119203
4.2741932
8.04776
7.3949208
8.7345026
12.882007
20.811454
19.140842
20.49661
29.787982
35.596543
31.839776
51.942558
536.26792
5003.8403
4936.8335
296.93241
7.4412729
3.7202108
7.7296917
5.0708495
5.9458417
5.9649996
10.27439
10.395685
8.2514047
13.379299
23.657903
15.864123
30.978669
24.686466
29.196523
47.993771
506.19328
4976.4537
4927.6088
287.66274
9.3390065
4.8111378
6.4542756
7.3412273
5.0670979
7.7349457
8.7498875
12.069756
8.4950787
17.537325
23.294181
14.552656
28.928804
33.887878
28.946314
46.632349
490.18231
4957.6771
4921.3123
277.17588
8.1930778
3.7912563
8.1245803
5.1669552
8.5734335
5.9458827
5.6440084
7.2082623
8.9035678
11.644428
16.30185
13.974469
28.48139
28.654339
34.01814
40.043741
483.76819
4954.5804
4916.061
273.15133
6.7032784
5.7714405
6.5695856
7.2027497
8.4471095
8.5815558
7.0691632
8.5577647
8.6720479
14.361046
16.372554
12.028166
19.122561
18.396817
33.849001
39.78756
481.56642
4950.2116
4909.0471
272.341
9.0791332
5.6946396
6.4503911
6.1307354
8.2349017
8.34496
5.3845018
9.8590781
10.275849
12.082379
17.447456
20.062087
22.8978
26.545937
34.888556
47.295693
478.02684
4945.5085
4901.8659
257.27858
5.5786914
3.4038371
3.730079
3.5925461
4.8166269
4.7287402
6.5858031
6.3031474
12.127681
8.8015041
17.534661
16.226212
23.450749
19.276718
35.725705
36.102032
485.85245
4937.6504
4894.4786
257.14543
7.8079016
4.5304798
4.8927448
4.4683469
6.7405245
4.7253189
7.9680108
5.9936869
9.902425
8.1059422
16.542162
10.449488
16.01821
14.645041
23.537059
29.003292
446.0699
4929.9826
4887.813
248.13182
5.5777069
3.2106514
6.0519492
6.2981589
6.7066346
5.2582896
8.2088126
9.3388615
9.604681
10.964976
12.362946
10.770543
18.05144
21.002917
27.530804
38.596553
430.43626
4921.163
4881.7592
241.13872
5.2701525
3.0243703
3.1117569
3.5918463
4.4024816
4.9828085
6.9064626
6.0451587
9.5587245
7.2187645
13.356055
10.269021
19.653248
15.775504
23.020332
30.719085
453.24501
4911.2885
4875.8172
232.84041
6.6320998
3.5251112
3.321501
2.9003333
2.9055714
2.9676518
6.2042617
3.5139995
8.9919013
8.6762858
13.701308
8.3113124
18.192966
12.241876
23.231106
29.96701
441.7496
4899.9631
4870.6633
227.99981
4.8791456
3.415893
4.0258338
4.168939
4.2728623
4.9331488
4.994774
3.7539202
8.490238
7.9488515
10.647394
12.826439
18.053684
18.621486
20.810222
36.47959
415.02432
4887.0957
4866.3047
221.24341
5.0089726
2.6100986
3.1574532
3.8419069
4.2813268
3.9522822
5.356933
5.7572003
8.1652916
9.5742004
11.510082
11.494007
15.814696
12.742409
20.693122
27.740271
437.82822
4876.0189
4861.7475
225.08689
4.4946388
3.161418
3.6884477
2.527419
3.856617
2.9092044
4.2527809
3.4009769
4.6989538
5.2792752
6.4948846
6.6840443
10.299283
10.238208
18.523645
21.615545
417.44449
4863.8946
4857.1629
215.45682
5.4684206
2.2833913
2.7610066
3.3038737
3.2045378
2.4983933
4.0128307
2.5036397
5.7152221
5.6194108
8.7054264
6.5876443
12.612588
7.8808227
13.798189
31.843423
425.88629
4852.0372
4853.1146
208.80637
5.4656612
3.0347383
3.5058504
3.5082964
3.4673715
3.4479768
2.2358738
1.8135828
5.6297169
4.0098206
7.1064506
8.4437709
10.953642
8.9339977
15.845934
34.232922
389.52487
4840.974
4849.7297
211.13402
5.2144163
1.8088194
2.4713902
3.056532
3.4791999
3.0755752
2.9349292
2.2477068
3.741376
5.1882473
9.4574366
11.965504
12.610558
16.469744
17.803056
34.835146
408.94739
4829.8041
4846.1604
207.22584
5.0435727
2.0611163
3.2502112
3.2803732
2.8135158
2.2584469
2.4887241
4.2968242
5.6282697
4.8776407
6.8803931
10.810552
11.8188
12.329935
13.837964
32.580657
391.34593
4819.8498
4842.1134
205.68359
5.4617563
2.4129059
2.4928077
2.3491338
2.2568975
3.3437227
3.9715741
4.2765006
4.6266393
5.7699438
7.0283697
6.72741
9.1851522
8.980465
13.57053
26.513521
381.48254
4811.9066
4839.1302
201.34672
4.8577982
1.9713809
2.605555
3.2030704
3.3780728