/*--------------------------------*- C++ -*----------------------------------*\
| =========                 |                                                 |
| \\      /  F ield         | OpenFOAM: The Open Source CFD Toolbox           |
|  \\    /   O peration     | Version:  1.7.x                                 |
|   \\  /    A nd           | Web:      www.OpenFOAM.com                      |
|    \\/     M anipulation  |                                                 |
\*---------------------------------------------------------------------------*/
FoamFile
{
    version     2.0;
    format      ascii;
    class       volScalarField;
    location    "0.003";
    object      p;
}
// * * * * * * * * * * * * * * * * * * * * * * * * * * * * * * * * * * * * * //

dimensions      [1 -1 -2 0 0 0 0];

internalField   nonuniform List<scalar> 
206988
(
102520.3
102520.22
102519.96
102519.96
102518.56
102518.71
102515.83
102513
102510.62
102503.76
102501.38
102494.85
102491.78
102490.16
102490.32
102488.98
102492.15
102479.29
102483.81
102483.46
102470.21
102469.84
102469.92
102468.98
102469.42
102466.92
102468
102461.6
102463.77
102453.61
102457.85
102448.23
102450.59
102448.38
102448.5
102447.59
102446.31
102446.38
102442.4
102444.91
102420.45
102420.12
102420.38
102419.48
102420.06
102418.37
102419.36
102414.28
102416.99
102407.37
102416.57
102403.67
102414.53
102408.59
102409.5
102408.58
102407.82
102408.98
102398.54
102416.56
102372.49
102372.18
102372.34
102371.51
102372.29
102369.48
102373.15
102366.86
102374.72
102361.48
102375.67
102347.5
102388.83
102371.65
102375.37
102369.37
102368.83
102367.35
102370.98
102360.71
102326.15
102325.91
102326.12
102325.4
102326.18
102323.2
102328.28
102321.12
102331.99
102317.64
102335.17
102319.69
102334.77
102328.37
102331.31
102332.21
102328.54
102331.82
102324.13
102330.19
102283.2
102283.21
102283.32
102283.31
102284.2
102283.32
102287.99
102277.77
102292.05
102269.68
102302.64
102270.89
102300.63
102290.02
102295.23
102291.59
102294.27
102290.41
102293.79
102291.33
102243.09
102242.92
102243.25
102242.84
102244.17
102242.8
102252.1
102244.38
102252.05
102241.65
102266.55
102222.28
102274.88
102250.66
102260.05
102255.99
102258.29
102256.07
102258.08
102256.38
102206.78
102206.79
102207.07
102207.47
102209.11
102210.65
102225.86
102197.73
102222.93
102208.25
102214.97
102176.61
102238.72
102215.23
102225.72
102223.31
102225.24
102223.9
102225.19
102224.13
102173.35
102173.32
102173.55
102173.8
102174.48
102175.33
102177.54
102174.71
102186.55
102159.62
102203.64
102155.94
102215.11
102187.33
102195.86
102189.09
102192.64
102192.45
102193.49
102193.2
102142.79
102142.78
102143
102143.25
102143.88
102144.66
102147.98
102135.35
102149.51
102130.8
102178.33
102133.62
102186.66
102163.81
102157.96
102167.91
102161.66
102161.68
102164.99
102164.16
102113.44
102113.33
102113.29
102112.99
102112.43
102109.67
102117.13
102112.34
102116.85
102097.98
102163.14
102120.08
102131.87
102129.26
102144.97
102138.4
102139.33
102138.82
102139.03
102138.8
102087.14
102086.94
102087.07
102086.57
102086.83
102070.8
102094.86
102090.59
102090.54
102095.69
102130.45
102104.11
102045.88
102131.98
102115.22
102110.31
102112.12
102112.92
102113.6
102113.61
102064.43
102063.47
102064.87
102063.03
102070.28
102060.65
102066.26
102062.45
102075.28
102067.23
102093.81
102072.54
102088.37
102077.7
102087.23
102088.7
102090.43
102090.48
102091.89
102091.48
102042.98
102041.94
102042.94
102043.03
102043.46
102044.11
102043.25
102041.6
102064.03
102052.82
102061.85
102046.45
102073.04
102065.05
102068.53
102069.39
102070.76
102071.07
102071.66
102071.58
102024.98
102024.62
102024.87
102025.28
102026.16
102026.75
102030.8
102034.59
102037.89
102037.94
102047.7
102037.68
102049.18
102044.95
102049
102049.56
102052.38
102051.91
102053.12
102052.74
102010.48
102008.21
102011.41
102008.81
102012.39
102010.35
102018.83
102018.49
102022.49
102019.76
102034.74
102020.83
102030.66
102029.97
102032.78
102033.72
102035.21
102035.63
102036.1
102036.15
101997.86
101996.08
101998.86
101997.81
101999.73
102000.24
102006.15
102000.64
102011.17
102001.1
102025.51
102009.62
102015.42
102016.97
102019.44
102019.93
102021.2
102021.58
102022
102022.01
101986.21
101985.21
101987.71
101984.57
101984.83
101975.54
102011.43
101995.8
101998.98
101995.66
102009.56
101997.99
102003.98
102005.14
102007.55
102008.16
102009.94
102009.79
102010.67
102010.42
101982.89
101982.29
101983.5
101982.02
101984.05
101981.94
101989.07
101983.18
101988.71
101982.83
101999.06
101990.06
101998.18
101997.06
101998.97
101999.54
102000.7
102001.03
102001.39
102001.45
101976.39
101975.67
101976.53
101975.62
101977.78
101975.61
101979.08
101976.86
101980.64
101982.93
101983.99
101985.34
101995.07
101989.29
101992.53
101992.82
101994.16
101994.27
101994.68
101994.62
101972.2
101971.77
101972.35
101971.88
101971.85
101971.59
101972.9
101973.36
101974.5
101981.62
101975.81
101982.26
101990.49
101986.95
101989.48
101988.96
101989.57
101989.69
101989.91
101989.91
101969.54
101969.3
101970.24
101967.04
101969.97
101969.24
101969.73
101970.1
101971.65
101977.21
101980.09
101977.86
101985.85
101984.65
101986.19
101986.1
101986.59
101986.69
101986.8
101986.84
101969.71
101969.66
101971.25
101967.03
101970.91
101969.09
101972.15
101967.25
101972.73
101971.74
101980.86
101979.28
101983.24
101983.21
101984.41
101984.46
101984.97
101985
101985.18
101985.16
101971.08
101970.76
101971.24
101969.75
101973.49
101969.55
101970.83
101969.45
101975.47
101972.52
101981.45
101980.41
101983.31
101983.04
101984.07
101984.08
101984.49
101984.5
101984.66
101984.65
101972.6
101972.16
101972.95
101972.46
101973.89
101972.29
101973.54
101973.24
101977.44
101972.16
101984.91
101982.2
101984.4
101983.71
101984.62
101984.51
101984.87
101984.85
101984.98
101984.96
101973.07
101972.71
101972.99
101971.06
101980.07
101977.53
101978.97
101978.6
101980.8
101976.55
101985.66
101983.02
101985.54
101984.68
101985.67
101985.41
101985.75
101985.7
101985.81
101985.79
101978.38
101978.02
101978.96
101977.74
101980.34
101979.71
101982.64
101980.67
101985.21
101979.73
101987.7
101984.1
101986.87
101985.92
101986.92
101986.6
101986.93
101986.82
101986.93
101986.89
101983.04
101982.84
101983.21
101983.14
101982.45
101984.31
101986.4
101983.42
101987.98
101982.49
101989.68
101985.55
101988.34
101987.32
101988.26
101987.86
101988.13
101988.01
101988.07
101988.04
101986.98
101986.4
101987.29
101986.31
101987.68
101986.19
101988.73
101985.71
101990.09
101984.51
101991.53
101986.64
101989.72
101988.42
101989.19
101988.88
101988.97
101988.87
101988.87
101988.82
101989.86
101989.83
101989.66
101988.61
101990.98
101989.04
101991.1
101988.05
101992.02
101986.82
101993.16
101988.03
101991.3
101989.68
101990.38
101990.13
101990.04
101989.92
101989.86
101989.95
102519.45
102519.21
102519.53
102520.07
102518.04
102517.86
102513.4
102512.97
102510.16
102503.99
102501.46
102494.98
102491.96
102488.96
102487.24
102487.32
102486.96
102492.75
102483.63
102484.46
102470.2
102469.83
102470.02
102468.9
102469.35
102466.79
102468.2
102461.88
102463.19
102454.85
102457.82
102445.31
102449.77
102448.05
102446.18
102447.16
102448.92
102453.24
102436.36
102437.13
102420.17
102419.83
102420.56
102419.21
102420.13
102418.34
102418.97
102414.55
102417.05
102408.93
102417.49
102403.56
102413.46
102407.75
102410.49
102407.23
102408.28
102406.18
102402.54
102406.54
102372.54
102372.57
102372.37
102371.55
102371.91
102369.61
102371.85
102367.3
102374.6
102362.51
102375.9
102359.83
102374.82
102368.21
102370.37
102368.19
102369.58
102367.38
102367.41
102364.47
102326.46
102326.04
102326.38
102325.55
102325.19
102321.37
102327.8
102320.79
102332.32
102319.35
102335.2
102318.58
102332.98
102323.64
102333.45
102327.6
102332.53
102326.79
102329.54
102327.87
102282.65
102282.46
102282.66
102282.66
102283.17
102283.31
102287.71
102271.2
102295.87
102284.81
102299.93
102267.97
102292.28
102292.06
102296.36
102293.91
102293.19
102290.64
102291.38
102290.57
102242.97
102242.74
102243.16
102242.36
102242.59
102242.19
102250.03
102252.93
102252.37
102235.65
102269.64
102234.15
102263.2
102254.79
102262.31
102253.96
102255.44
102254.32
102257.2
102250.05
102206.73
102206.62
102206.79
102206.6
102207.31
102204.85
102218.21
102206.01
102220
102214.26
102230.78
102192.05
102230.86
102226.53
102229.62
102224.61
102224.52
102223.77
102225.02
102223.53
102173.28
102173.3
102173.44
102173.63
102174.22
102174.97
102177.9
102173.36
102183.05
102162.69
102202.92
102161.62
102204.18
102196.06
102196.12
102193.18
102193.48
102192.89
102193.92
102193.46
102142.91
102142.93
102143.2
102143.59
102144.52
102146.13
102152.17
102130.16
102153.63
102141.09
102174.6
102135.45
102175.39
102162.64
102161.08
102162.12
102164.2
102164.13
102165.11
102164.84
102113.95
102113.87
102114.12
102114.27
102115.05
102112.54
102127.94
102104.72
102129.31
102107.36
102172.13
102090.12
102146.58
102142.1
102132.66
102134.58
102136.64
102137.61
102138.43
102138.41
102087.39
102087.24
102087.43
102087.23
102090.34
102072.72
102094.9
102095.36
102096.59
102089.01
102142.01
102051.6
102123.61
102112.59
102125.83
102099.96
102110.07
102111.9
102113.26
102113.4
102064.15
102063.49
102064.18
102063.24
102065.97
102062.96
102063.83
102062.64
102071.5
102071.47
102091.25
102068.99
102099.86
102083.29
102088.82
102088.53
102090.71
102091.39
102092.39
102092.2
102043.33
102042.74
102043.37
102043.28
102044.94
102042.75
102042.8
102040.93
102065.13
102051.39
102060.46
102055.29
102075.96
102066.38
102069.18
102069.8
102071.23
102071.63
102072.2
102072.13
102025.48
102024.99
102025.93
102025.52
102026.67
102026.89
102030.33
102024.82
102043.18
102045.92
102042.44
102037.24
102054.3
102033.7
102048.05
102050.3
102052.16
102052.8
102053.38
102053.39
102009.87
102008.06
102010.52
102008.72
102010.04
102008.59
102021.62
102016.37
102018.85
102019.66
102040.54
102017.85
102031.93
102028.68
102033.45
102034.41
102035.8
102036.26
102036.67
102036.72
101997.88
101996.27
101998.94
101996.61
101999.81
102000.68
102003.83
102008.95
102011.22
102001.06
102026.77
102009.31
102013.98
102013.68
102020.51
102019.97
102022.53
102021.85
102022.75
102022.41
101985.87
101984.11
101986.17
101984.41
101987.66
101988.47
102003.4
101993.68
101999.42
101995.34
102009.66
101998.3
102004.85
102005.4
102008.34
102009.14
102010.4
102010.74
102011.11
102011.15
101983.09
101982.05
101985.65
101981.04
101985.3
101980.47
101993.73
101981.5
101987.96
101982.96
101997.91
101982.15
102007.59
101999.38
101999.93
102000.41
102001.43
102001.92
102002.07
102002.11
101976.82
101976.12
101976.87
101977.06
101978.24
101976.03
101979.58
101975.69
101981.73
101980.92
101993.72
101984.89
101992.81
101991.51
101993.55
101993.71
101994.69
101994.9
101995.22
101995.22
101973.01
101972.5
101973.77
101970.73
101973.93
101970.86
101973.26
101972.69
101978.07
101978.44
101984.03
101982.04
101987.66
101986.56
101988.94
101989.29
101990.03
101990.18
101990.43
101990.44
101970.13
101969.89
101970.23
101969.37
101971.1
101968.35
101971.78
101966.99
101973.53
101976.56
101983.34
101979.9
101984.68
101984.85
101986.38
101986.59
101987.11
101987.18
101987.38
101987.38
101970.03
101969.33
101970.72
101969.16
101970.35
101970.34
101970.41
101968.75
101976.17
101973.21
101982.45
101980.19
101983.49
101983.6
101984.84
101985.03
101985.48
101985.59
101985.72
101985.74
101971.9
101971.37
101972.08
101972.81
101973.96
101968.76
101972.19
101970.03
101976.26
101973.18
101984.05
101981.42
101983.94
101983.69
101984.67
101984.66
101985.11
101985.1
101985.26
101985.23
101973.45
101972.69
101973.42
101973.13
101973.19
101973.83
101974.85
101974.38
101976.75
101968.07
101991.24
101983.71
101985.24
101984.35
101985.27
101985.12
101985.49
101985.46
101985.6
101985.57
101973.83
101973.23
101972.9
101970.91
101982.03
101977.94
101980.61
101978.68
101982.67
101976.9
101986.9
101983.9
101986.26
101985.33
101986.29
101986.05
101986.39
101986.33
101986.44
101986.42
101978.8
101978.42
101978.68
101977.29
101982.47
101980.73
101983.77
101982.76
101985.35
101980.39
101988.38
101984.77
101987.54
101986.57
101987.57
101987.24
101987.56
101987.48
101987.57
101987.55
101983.88
101983.61
101984.26
101983.67
101984.84
101984.35
101986.82
101984.08
101988.67
101983.23
101990.27
101986.22
101989.01
101987.98
101988.89
101988.53
101988.78
101988.66
101988.75
101988.69
101987.77
101987.2
101988.1
101987.1
101988.48
101986.94
101989.41
101986.41
101990.78
101985.21
101992.15
101987.26
101990.46
101989.08
101989.95
101989.53
101989.65
101989.53
101989.53
101989.48
101990.69
101990.62
101991.07
101990.68
101990.56
101989.53
101991.59
101988.63
101992.74
101987.45
101993.72
101988.68
101991.91
101990.48
101991.11
101990.88
101990.58
101990.66
101990.52
101990.64
102521.49
102521.8
102520.6
102519.94
102519.32
102518.79
102517.4
102513.32
102510.09
102504.69
102501.26
102496.23
102493.17
102490.68
102489.91
102487.05
102485.67
102484.08
102485.28
102486.5
102469.46
102469.11
102469.1
102468.36
102468.35
102466.67
102466.83
102461.91
102465.36
102454.45
102459.87
102454.34
102454.62
102452.27
102452.16
102449.25
102447.88
102446.1
102443.06
102444.39
102419.62
102419.48
102419.57
102417.8
102418.16
102418.23
102421.36
102406.87
102418.79
102408.65
102416.9
102403.39
102414.03
102407.52
102410.63
102407.44
102407.82
102405.65
102406.27
102405.32
102370.93
102370.86
102370.72
102370.43
102370.9
102369.44
102372.28
102365.58
102374.01
102362.75
102376.35
102363.14
102377.25
102365.72
102373.28
102367.34
102370.57
102366.57
102369.17
102361.67
102326.28
102326.11
102325.99
102324.99
102324.94
102325.63
102327.9
102319.33
102333.01
102320.36
102335.86
102314.92
102337.14
102330.13
102332.97
102334.49
102335.11
102326.36
102331.85
102328.66
102281.91
102280.41
102281.24
102281.7
102282.33
102282.95
102289.79
102256.67
102306.34
102279.52
102306.29
102241.18
102324.05
102296.42
102308.33
102290.26
102292.52
102290.5
102290.45
102291.08
102242.82
102242.42
102242.91
102242
102242.49
102247.34
102258.55
102236.25
102246.1
102241.92
102263.42
102224.91
102270.71
102260.3
102296.27
102267.99
102228.79
102241.67
102248.5
102249.96
102206.63
102206.5
102206.73
102206.53
102207.63
102207.26
102211.39
102207.22
102215.68
102204.71
102241.06
102177.43
102242.89
102214.87
102228.56
102220.4
102230.04
102224.61
102226.47
102225.13
102173.3
102173.23
102173.51
102173.59
102174.44
102175.2
102178.47
102170.36
102182.12
102172.87
102210.71
102160.9
102200.54
102189.78
102189.06
102191.44
102194.2
102192.97
102196.23
102194.65
102142.93
102142.9
102143.14
102143.42
102144.05
102144.5
102147.42
102118.06
102167.73
102133.2
102171.16
102140.32
102185.93
102156.29
102162.21
102159.37
102164.13
102165.05
102166.08
102166.11
102114.17
102114.09
102114.24
102114.2
102114.31
102114.03
102119.19
102115.23
102122.52
102103.33
102126.93
102073.93
102192.35
102148.3
102145.23
102139.39
102139.6
102139.75
102140.15
102140.11
102087.34
102087.16
102087.24
102086.74
102086.91
102083.62
102089.62
102094.71
102090.65
102089.93
102128.36
102057.22
102150.24
102118.6
102120.5
102114.67
102115.17
102115.41
102115.7
102115.54
102064.2
102063.57
102064.36
102063.52
102064.82
102062.43
102065.43
102063.09
102066.09
102060.72
102113.84
102071.63
102103.11
102085.45
102091.47
102091.57
102092.94
102093.09
102093.35
102093.39
102044.46
102043.57
102044.43
102044.47
102044.97
102044.01
102046.38
102042.57
102054.65
102051.96
102063.23
102053.98
102083.15
102070.05
102071.46
102071.91
102073.03
102073.25
102073.66
102073.58
102026.71
102026.08
102026.66
102026.62
102028.12
102027.3
102034.6
102011.35
102048.96
102041.2
102048.29
102035.61
102053.6
102050.14
102052.25
102052.61
102054.18
102054.44
102054.93
102054.9
102009.68
102008.7
102010.66
102009.56
102015.74
102000.42
102027.9
102006.42
102026.42
102024.37
102042.68
102015.01
102033.76
102032.77
102035.63
102036.19
102037.56
102037.82
102038.25
102038.27
101998.71
101997.45
101999.27
101998.06
101999.83
101998.9
102004.1
101993.44
102011.15
102010.56
102027.86
102005.8
102019.42
102018.11
102022.52
102022.02
102023.88
102023.73
102024.36
102024.22
101988.19
101987.23
101987.96
101985.56
101983.21
101972.16
102014.52
101994.4
102002.12
101997.11
102009.99
101999.72
102006.43
102007.33
102010.05
102010.95
102011.98
102012.27
102012.63
102012.7
101983.32
101983.01
101984.02
101982.43
101984.06
101981.45
101998.07
101981.85
101990.34
101988.44
101998.61
101992.8
101998.02
101998.97
102000.95
102001.8
102002.62
102002.79
102003.46
102003.28
101977.46
101977.05
101977.49
101978.63
101978.9
101976.14
101982
101977.59
101985.83
101982.77
101989.59
101987.5
101991.74
101992.64
101994.55
101995.11
101996.1
101996.26
101996.61
101996.59
101974.74
101973.4
101975.89
101972.11
101975.57
101972.86
101974.11
101968.77
101986.78
101982.38
101985.46
101983.41
101987.79
101988.8
101990.31
101990.72
101991.34
101991.55
101991.8
101991.83
101971.92
101971.51
101972.14
101970.85
101973.86
101969.72
101974.15
101972.48
101978.13
101976.56
101984.7
101981.99
101985.4
101986.16
101988.27
101988.05
101988.54
101988.59
101988.83
101988.8
101971.63
101970.79
101972.82
101970.88
101971.71
101970.77
101969.6
101964.65
101982.18
101978.84
101982.49
101981.48
101984.96
101985.02
101986.45
101986.47
101986.99
101987.08
101987.17
101987.23
101973.74
101973.31
101974.19
101971.78
101974.15
101972.08
101975.32
101971.49
101979.34
101971.65
101986.04
101982.88
101985.53
101985.05
101986.2
101986.16
101986.58
101986.63
101986.78
101986.76
101975.02
101973.93
101975.99
101973.28
101975.81
101974.67
101976.73
101976.59
101980.44
101972.95
101988.3
101984.64
101986.78
101985.91
101986.9
101986.68
101987.09
101987.03
101987.16
101987.15
101976.66
101976.51
101976.91
101976.5
101978.86
101978.13
101982.83
101981.68
101982.23
101978.3
101987.78
101985.33
101987.9
101986.96
101987.97
101987.67
101988.03
101987.95
101988.06
101988.03
101981.35
101981.16
101981.85
101981.31
101982.04
101982.35
101984.06
101982.28
101987.66
101982.13
101989.87
101986.49
101989.25
101988.23
101989.27
101988.88
101989.24
101989.11
101989.23
101989.17
101985.76
101985.55
101986.05
101985.72
101986.12
101986.62
101987.63
101985.65
101990.16
101985.02
101991.93
101987.95
101990.68
101989.68
101990.6
101990.21
101990.48
101990.33
101990.4
101990.36
101989.57
101988.94
101989.94
101988.91
101990.26
101988.8
101991.08
101988.02
101992.46
101986.98
101993.8
101989.03
101992.04
101990.81
101991.55
101991.24
101991.34
101991.28
101991.3
101991.25
101992.36
101992.3
101992.49
101992.45
101992.67
101992.57
101992.71
101990.24
101994.47
101989.2
101995.39
101990.42
101993.22
101991.94
101993.5
101992.73
101992.56
101992.4
101992.39
101992.42
102519.42
102519.4
102519.07
102518.65
102518.05
102516.99
102515.2
102512.86
102508.94
102503.56
102499.91
102495.14
102492.49
102491.68
102488.71
102487.57
102486.98
102485.99
102484.44
102484.97
102468.56
102468.2
102468.17
102467.48
102467.68
102465.73
102466.27
102461.9
102463.75
102455.77
102457.5
102450.23
102450.48
102446.42
102446.55
102444.71
102448.48
102446.28
102446.35
102445.58
102418.33
102418.05
102418.18
102417.41
102418.21
102416.43
102417.99
102412.48
102417.77
102408.38
102416.82
102404.87
102412.79
102406.05
102409.27
102409.01
102408.07
102407.59
102406.92
102406.86
102370.45
102370.33
102370.29
102370.26
102370.89
102369.44
102371.79
102366.7
102373.11
102362.72
102375.6
102362.41
102371.4
102361.03
102373.6
102366.47
102371.36
102368.09
102370.62
102367.78
102325.56
102325.49
102326.44
102326.26
102328.13
102324.43
102328.34
102320.11
102332.1
102315.76
102335.65
102316.55
102330.93
102307.64
102359.18
102336.15
102337.61
102331.65
102331.87
102329.79
102283.83
102283.94
102282.98
102283.41
102283.29
102281.94
102285.69
102274.54
102289.45
102275.12
102301.4
102270.45
102302.77
102288.9
102318.34
102287.42
102299.41
102293.16
102295.43
102293.19
102243.51
102243.16
102243.58
102243.18
102243.45
102243.54
102248.01
102251.57
102245.73
102232.47
102261.11
102238.75
102266.38
102250.01
102269.42
102263.99
102260.11
102258.91
102258.82
102258.69
102206.87
102206.55
102206.96
102206.54
102206.94
102205.36
102208.85
102207.11
102220.39
102202.2
102236
102198.46
102235.3
102220.19
102232.7
102226.12
102230.12
102227.1
102228.34
102227.39
102173.54
102173.44
102173.62
102173.34
102174.06
102172.64
102178.08
102174.83
102181.92
102174.3
102208.11
102160.85
102198.99
102193.99
102197.17
102194.34
102198.87
102195.88
102198.26
102196.65
102143.19
102143.19
102143.31
102143.41
102143.9
102143.8
102146.09
102140.98
102157.08
102138.82
102175.86
102139.99
102190.45
102156.24
102168.32
102167.15
102169.31
102169.01
102169.76
102169.36
102114.96
102114.89
102115.03
102114.98
102115.33
102114.12
102118.38
102113.12
102124.69
102116.47
102145.5
102110.33
102152.55
102142.38
102143.02
102141.63
102142.98
102142.94
102143.27
102142.9
102088.69
102088.45
102088.82
102088.73
102089.54
102076.99
102098.4
102093.99
102098.25
102086.88
102121.02
102094.44
102131.12
102120.09
102120.67
102117.86
102118.49
102118.39
102119.55
102116.13
102065.7
102065.51
102066.02
102066.5
102068.52
102060.15
102072.46
102065.67
102075.88
102063.81
102091.1
102086.71
102101.79
102096.11
102097.41
102095.99
102096.47
102096.32
102096.52
102096.28
102046.85
102046.58
102047.46
102045.17
102047.51
102047.92
102050.67
102042.41
102055.38
102043.06
102084.07
102057.52
102076.88
102073.61
102076.04
102075.73
102076.41
102076.39
102076.57
102076.56
102028.44
102028.18
102028.79
102029.19
102030
102032.43
102039.14
102029.42
102028.01
102034.08
102061.16
102043.67
102062.85
102051.21
102057.99
102055.43
102058.36
102057.22
102058.22
102057.7
102012.42
102011.13
102013.11
102010.11
102014.02
102009.97
102024.11
101995.57
102024.5
102033.37
102052.54
102022.35
102036.51
102037.19
102040.84
102040.58
102041.3
102041.09
102041.51
102041.37
102001.16
102000.31
102002.32
102000.85
102006.29
101994.74
101987.26
101991.67
102014.63
102028.51
102034.95
102013.48
102021.99
102022.7
102025.44
102026.03
102026.9
102027.02
102027.3
102027.29
101991.42
101991.33
101991.81
101992.18
101994.38
101990.4
101993.93
101988.47
102010.56
102006
102009.82
102004.42
102011.79
102011.92
102013.73
102014.32
102015.1
102015.29
102015.7
102015.61
101985.21
101985.13
101985.56
101984.41
101987.74
101986.74
101989.28
101985.01
101996.67
101990.78
102002.35
101999.61
102002.67
102002.72
102004.63
102004.9
102005.85
102005.94
102006.36
102006.29
101980.83
101980.9
101981.55
101979.13
101981.77
101980.82
101981.17
101984.37
101987.14
101986.27
101994.52
101991.11
101995.14
101996.03
101997.48
101998.18
101998.86
101999.13
101999.45
101999.47
101977.7
101976.76
101978.64
101976.64
101978.31
101977.24
101978.42
101976.87
101983.47
101979.88
101991.4
101986.11
101991.65
101991.47
101992.77
101993.51
101994.2
101993.49
101995.11
101994.38
101976.17
101975.04
101976.98
101975.11
101976.82
101975.59
101977.46
101975.15
101981.33
101979.57
101987.69
101983.8
101988.42
101988.44
101989.38
101990.27
101991.01
101991.19
101991.49
101991.49
101974.98
101974.61
101975.61
101973.18
101975.49
101973.42
101973.8
101969.43
101987.12
101977.52
101989.33
101985.81
101987.91
101988.02
101988.85
101989.26
101989.74
101989.91
101990.08
101990.09
101976.91
101976.27
101977.76
101974.17
101977.44
101975.37
101978.64
101976.11
101981.87
101977.86
101987.59
101986.11
101988.62
101988.18
101989.23
101989.18
101989.63
101989.64
101989.83
101989.79
101978.36
101978.16
101978.86
101977.87
101980.76
101967.29
101985.94
101983.05
101983.93
101973.69
101993.66
101987.53
101990.01
101989.01
101990.07
101989.82
101990.24
101990.19
101990.31
101990.3
101980.85
101980.69
101980.47
101980.09
101981.63
101980.36
101984.99
101985.37
101987.58
101981.53
101991.83
101988.61
101991.21
101990.2
101991.22
101990.89
101991.26
101991.18
101991.3
101991.26
101985.29
101985.15
101985.21
101985.32
101984.65
101985.42
101986.92
101987.2
101990.82
101985.48
101993.29
101989.71
101992.59
101991.47
101992.54
101992.16
101992.51
101992.4
101992.49
101992.46
101989.45
101988.94
101989.49
101989.33
101989.65
101990
101991.3
101989.02
101993.48
101988.72
101995.24
101991.09
101994
101992.94
101993.84
101993.48
101993.74
101993.61
101993.72
101993.65
101993.12
101992.39
101993.57
101992.48
101993.84
101992.33
101994.65
101991.58
101995.88
101990.55
101997.15
101992.37
101995.63
101994.1
101995.03
101994.61
101994.75
101994.67
101994.65
101994.62
101995.78
101995.57
101996.21
101995.33
101996.47
101994.97
101996.94
101994.05
101997.94
101992.66
101998.83
101993.78
101997.25
101995.5
101996.36
101995.89
101995.6
101995.88
101995.63
101995.8
102517.48
102519.17
102518.13
102517.79
102516.13
102514.78
102512.79
102510.48
102508.31
102501.21
102500.22
102493.77
102490.58
102488.45
102485.35
102486.06
102486.22
102485.09
102484.69
102483.82
102467.14
102466.77
102466.97
102465.87
102466.51
102464.03
102465.36
102461.17
102461.66
102454.8
102456.9
102449.31
102450.42
102447.83
102448.96
102446.97
102446.89
102445.21
102449.35
102442.41
102416.84
102416.48
102416.81
102416.01
102416.58
102414.46
102416.32
102414.62
102414.21
102408.26
102415.59
102404.64
102411.97
102404.88
102411.53
102406.91
102409.99
102406.21
102407.6
102405.89
102369.44
102369.23
102369.45
102369.18
102369.39
102367.31
102369.17
102366.36
102371.36
102361.16
102375.2
102358.31
102375.24
102364.37
102373.59
102367.93
102378.23
102368.15
102373.16
102369.67
102324.56
102324.27
102324.61
102324.33
102325.04
102323.2
102327.48
102319.89
102334.48
102309.55
102338.28
102309.65
102342.31
102333.31
102345.24
102323.37
102333.26
102328.77
102333.59
102332.5
102282.55
102282.3
102282.78
102282.19
102283.52
102282.01
102286.91
102276.71
102295.75
102267.89
102299.81
102252.38
102333.25
102324.97
102278.47
102279.41
102297.66
102297.58
102300.8
102297.99
102244.74
102244.25
102245.2
102244.39
102246.17
102245.14
102249.21
102251.55
102250.64
102225.42
102276.12
102230.5
102278.76
102258.01
102265.67
102254.58
102262.68
102259.22
102263.02
102261.06
102208.57
102207.98
102208.85
102208.37
102208.61
102207.72
102211.9
102209.01
102219.58
102202.8
102231.46
102206.52
102238.02
102221.8
102230.26
102227.27
102228.38
102228.56
102230.4
102229.16
102175.4
102175.09
102175.71
102175.27
102176.26
102174.98
102176.7
102174.06
102189.53
102178.56
102198.41
102185.4
102202.74
102187.88
102200.17
102194.28
102197.98
102198
102199.72
102199.47
102144.98
102144.84
102145.17
102144.84
102145.74
102145.82
102147.54
102142.75
102155.65
102149.8
102170.59
102146.08
102179.87
102157.16
102172.84
102157.8
102178.49
102175.87
102175.57
102174.97
102117.79
102117.83
102118.31
102118.9
102121.2
102113.95
102126.28
102101.58
102138.21
102121.02
102131.07
102124.97
102156.14
102140.71
102145.6
102141.11
102144.12
102145.29
102146.1
102146.13
102090.98
102090.91
102091.31
102091.41
102094.89
102077.9
102104.75
102100.76
102109.01
102077.6
102101.04
102115.1
102138.98
102115.38
102137.34
102098.34
102112.23
102116.55
102118.48
102118.95
102067.58
102067.35
102067.69
102067.05
102069.48
102071.21
102072.6
102070.58
102093.05
102057.05
102092.06
102087.02
102097.03
102094.06
102101.49
102097.26
102097.92
102098.17
102098.64
102098.61
102050.21
102049.93
102050.56
102049.99
102057.86
102045.57
102055.94
102029.9
102065.04
102041.4
102097.38
102065.54
102074.6
102074.76
102078.33
102078.24
102079.08
102079.07
102079.31
102079.23
102032.6
102031.96
102032.06
102032.02
102033.76
102032.06
102030.07
102026.73
102036.33
102027.57
102081.49
102052.48
102057.73
102056.39
102059.76
102059.56
102060.74
102060.74
102061.14
102061.02
102017.11
102015.66
102016.12
102016.16
102017.13
102014.8
102018.79
102005.8
102041.31
102025.14
102046.57
102033.94
102041.41
102040.67
102043.08
102043.66
102044.55
102044.81
102045.03
102045.07
102004.28
102002.52
102005.94
101999.99
102004.31
102000.81
102011.49
102006.42
102022.19
102020.98
102026.59
102019.46
102031.34
102025.36
102029.41
102029.91
102030.78
102030.99
102031.28
102031.29
101994.74
101994.49
101995.53
101994.16
101999.69
101984.97
102006.15
102002.51
102009.8
102004.91
102017.09
102011.69
102017.94
102015.37
102017.84
102018.38
102019.2
102019.45
102019.76
102019.75
101989.38
101988.3
101990.3
101990.38
101993.93
101993.64
102003.51
101976.57
102002.13
102000.19
102006.6
102002.82
102007.18
102007.13
102009.18
102009.35
102010.23
102010.37
102010.65
102010.69
101985.02
101983.68
101985.18
101984.78
101986.37
101986.54
101987.82
101985.06
101994.9
101990.48
102001.38
101997.35
102000.25
102000.66
102002.26
102002.75
102003.42
102003.66
102003.91
102003.93
101983.09
101983.34
101983.87
101981.51
101983.74
101982.96
101983.36
101984.44
101984.75
101991.57
101995.47
101993.56
101996.15
101996.55
101997.7
101998.12
101998.98
101998.86
101999.31
101999.21
101981.6
101981.5
101981.89
101981.84
101982.41
101980.46
101992.72
101960.57
101993.26
101987.18
101993.4
101991.19
101993.72
101994.02
101995.19
101995.42
101996.06
101996.17
101996.41
101996.42
101980.56
101980.31
101981.19
101976.87
101982.67
101980.93
101982.24
101978.24
101981.95
101973.89
102002.96
101993.46
101993.92
101993.34
101994.31
101994.39
101994.89
101994.94
101995.15
101995.13
101980.75
101980.01
101980.47
101979.84
101982.39
101984.76
101984.46
101982.46
101985.27
101980.49
101995.17
101992.75
101994.4
101993.61
101994.57
101994.44
101994.91
101994.91
101995.02
101995.04
101983.23
101983.12
101982.86
101982.24
101985.92
101983.69
101986.66
101986.86
101989.13
101979.62
101998.95
101993.5
101995.53
101994.65
101995.5
101995.31
101995.65
101995.62
101995.75
101995.71
101987.18
101986.86
101985.6
101987.57
101987.73
101986.17
101988.81
101990.72
101992.61
101987.36
101997.42
101994.55
101996.85
101995.88
101996.79
101996.49
101996.83
101996.74
101996.85
101996.81
101991.78
101990.65
101991.93
101991.07
101992.19
101989.47
101994.56
101992.34
101996.68
101991.32
101999
101995.81
101998.36
101997.28
101998.2
101997.89
101998.18
101998.1
101998.18
101998.15
101996.29
101995.95
101995.92
101996.22
101996.06
101994.99