/*--------------------------------*- C++ -*----------------------------------*\
| =========                 |                                                 |
| \\      /  F ield         | OpenFOAM: The Open Source CFD Toolbox           |
|  \\    /   O peration     | Version:  1.7.x                                 |
|   \\  /    A nd           | Web:      www.OpenFOAM.com                      |
|    \\/     M anipulation  |                                                 |
\*---------------------------------------------------------------------------*/
FoamFile
{
    version     2.0;
    format      ascii;
    class       volScalarField;
    location    "0.003";
    object      rho;
}
// * * * * * * * * * * * * * * * * * * * * * * * * * * * * * * * * * * * * * //

dimensions      [1 -3 0 0 0 0 0];

internalField   nonuniform List<scalar> 
206988
(
1.1783434
1.1783348
1.1783608
1.1783691
1.1783823
1.1783808
1.1783543
1.1782523
1.1782694
1.1782096
1.1782106
1.1781719
1.178043
1.1778007
1.1773094
1.1761742
1.1805864
1.1791754
1.1789371
1.1791003
1.1779932
1.177985
1.1780018
1.1779845
1.1779804
1.1779875
1.1779729
1.1778981
1.1779581
1.1779029
1.1778678
1.1777699
1.177746
1.1776385
1.1777194
1.1776725
1.1783418
1.1782274
1.1781106
1.1784293
1.1776252
1.177606
1.1776064
1.1776314
1.1776355
1.1776371
1.177661
1.1775579
1.1775448
1.1774288
1.1777907
1.1775347
1.1771326
1.1761662
1.1787896
1.1779202
1.1782295
1.1779146
1.1781245
1.1784826
1.1769101
1.1773645
1.1773274
1.1772767
1.1772222
1.1772125
1.1773408
1.1774551
1.1771932
1.177641
1.1790064
1.1787134
1.1761328
1.1754773
1.1787337
1.1768012
1.1790092
1.1780355
1.178082
1.1781913
1.1770584
1.176814
1.1768526
1.176886
1.1769679
1.1771106
1.1771451
1.1782569
1.1760806
1.1793843
1.1757774
1.1751671
1.1802793
1.1815298
1.1733445
1.1772141
1.1749758
1.176088
1.1765571
1.1770667
1.1765199
1.17649
1.1765113
1.176534
1.1765673
1.1766196
1.1765051
1.176609
1.1757249
1.1742464
1.1810424
1.181887
1.1713005
1.1765488
1.1741227
1.1759078
1.1752396
1.1754991
1.1761509
1.1764841
1.1761598
1.1761454
1.1761551
1.1761772
1.176204
1.1761891
1.1762327
1.1762345
1.1762572
1.177635
1.1754626
1.1776645
1.1745528
1.1757893
1.1752587
1.1757519
1.1754905
1.1755423
1.176074
1.1763695
1.1758509
1.1758634
1.175861
1.1758631
1.1758535
1.1758488
1.1760168
1.1759445
1.1766004
1.1776812
1.1744183
1.1751621
1.1763542
1.1757226
1.175473
1.175625
1.1755307
1.1755384
1.1758625
1.1761049
1.1756027
1.1756151
1.1756122
1.1756243
1.1756267
1.1756495
1.1756275
1.175791
1.1762408
1.1773193
1.1741466
1.1757651
1.1752625
1.1762371
1.1744522
1.1751244
1.1752034
1.1753246
1.1752796
1.1755616
1.1754038
1.1754079
1.1754252
1.1754559
1.1753242
1.1753905
1.175464
1.1756463
1.1750525
1.1745575
1.176404
1.175536
1.1754035
1.1759323
1.1752371
1.1765186
1.1735752
1.1745883
1.1743033
1.1748938
1.1751831
1.1751863
1.1752023
1.1752632
1.1752888
1.1756116
1.1749044
1.175277
1.1753007
1.1763423
1.1743804
1.174599
1.1752152
1.1750603
1.1749936
1.1752155
1.1747957
1.1749562
1.174691
1.175121
1.1749322
1.1749342
1.1749469
1.1749929
1.1750655
1.1751037
1.1748868
1.1750759
1.175366
1.1762254
1.1744767
1.1754153
1.173532
1.1747661
1.1748467
1.1747761
1.1749627
1.174888
1.1749185
1.1752513
1.1747346
1.1747243
1.1747649
1.1747744
1.1748915
1.1749648
1.174905
1.1754057
1.1745264
1.1753276
1.1741959
1.1736971
1.1756782
1.1752247
1.1743435
1.1746087
1.1747233
1.174778
1.1748291
1.1751583
1.1745745
1.1745585
1.1745768
1.1746052
1.1746656
1.1747865
1.1743707
1.1743293
1.1750007
1.1756294
1.1732655
1.1726722
1.1759465
1.1744991
1.1751967
1.1748605
1.1747663
1.174729
1.1747707
1.175048
1.1744153
1.1744017
1.1744346
1.1744489
1.1744713
1.1745665
1.1746149
1.1742902
1.1738026
1.1738306
1.1749318
1.1749344
1.1735137
1.1739366
1.1747267
1.174745
1.1746271
1.174655
1.174473
1.1748152
1.174333
1.1743204
1.1743574
1.1743602
1.1744529
1.174566
1.1746334
1.1750237
1.173539
1.1750466
1.1734407
1.1733571
1.1747117
1.1742901
1.1745925
1.1745124
1.1744517
1.1744669
1.1743776
1.1747231
1.1742943
1.1742558
1.1743182
1.1744382
1.174558
1.1748965
1.1736472
1.1737784
1.1740282
1.1724026
1.1759648
1.1732222
1.175424
1.1745334
1.1745039
1.1743184
1.1744271
1.174343
1.1743534
1.1746581
1.1741448
1.1741836
1.1742403
1.1743278
1.1743608
1.1746996
1.1739894
1.1746156
1.174363
1.1766083
1.1716216
1.1734453
1.1739844
1.1742045
1.1741172
1.1742722
1.1740702
1.1741346
1.1741842
1.1745198
1.1741558
1.1741216
1.174166
1.1741995
1.1743099
1.1745974
1.1747322
1.1762596
1.1724921
1.1743434
1.1731411
1.1740285
1.1736691
1.1741604
1.1737513
1.1739795
1.174004
1.1740806
1.1741126
1.1744432
1.1739728
1.1740258
1.1740424
1.1740486
1.1741299
1.1741507
1.1742301
1.1751091
1.1733291
1.1757195
1.1721244
1.1743709
1.173051
1.1738982
1.1736171
1.1738897
1.1739437
1.1740141
1.1739952
1.1743144
1.1739298
1.1739451
1.1739499
1.1739564
1.1739764
1.1740594
1.1739438
1.1741442
1.1739003
1.174774
1.1729051
1.1737926
1.1738015
1.1740309
1.1737185
1.1739455
1.1739151
1.1740167
1.173906
1.1742371
1.1739814
1.1739173
1.1739409
1.17394
1.1739826
1.1740954
1.1739084
1.1742991
1.173588
1.1744529
1.1733049
1.1739636
1.1738576
1.1741094
1.1737595
1.1739289
1.1738384
1.1739069
1.1739603
1.1742967
1.1739426
1.1739425
1.1739676
1.1739688
1.1738873
1.1739158
1.1738884
1.1738484
1.1737543
1.1732512
1.1745636
1.1740785
1.1740444
1.1741067
1.1738761
1.1739451
1.1739056
1.1739208
1.1740001
1.1743242
1.173969
1.1739596
1.1739749
1.173998
1.1739905
1.1740648
1.1740307
1.1746124
1.1733478
1.174214
1.1735038
1.1738831
1.1740114
1.1740211
1.1739413
1.1739471
1.1740098
1.1739949
1.1740359
1.1743358
1.1739416
1.1739352
1.1739304
1.1739172
1.1739376
1.1738966
1.1738912
1.1736552
1.1741916
1.1738676
1.1740998
1.1739994
1.1740087
1.1740155
1.1740189
1.1740187
1.1740065
1.1740193
1.1740363
1.1743423
1.173967
1.1739668
1.1739822
1.1739894
1.1739416
1.1739856
1.1739918
1.1741419
1.1738071
1.1739237
1.1740238
1.1740015
1.1740258
1.1740255
1.1740308
1.1740581
1.174037
1.1740389
1.1740104
1.1743366
1.1739589
1.1739549
1.1739688
1.1739392
1.1740114
1.1739718
1.1740119
1.1739476
1.1740714
1.1739781
1.1740395
1.1740049
1.1740326
1.174036
1.1740482
1.1740506
1.1740426
1.1740372
1.1740479
1.1743422
1.1740105
1.1740101
1.1740094
1.174029
1.1739636
1.1739796
1.174049
1.1740087
1.1740428
1.1739995
1.1740651
1.1740214
1.1740432
1.174033
1.1740481
1.1740381
1.1740488
1.17404
1.1740427
1.1743497
1.1740369
1.1740331
1.1740392
1.1740264
1.1740376
1.1740256
1.1740497
1.1740252
1.17406
1.1740188
1.1740769
1.174036
1.1740636
1.1740526
1.1740601
1.1740481
1.1740435
1.1740554
1.1740527
1.1743575
1.1740632
1.1740629
1.1740616
1.1740513
1.1740647
1.1740494
1.1740677
1.174043
1.1740788
1.174028
1.1740771
1.1740445
1.1740717
1.1740574
1.1740674
1.1740697
1.1740698
1.1740683
1.1740637
1.1743649
1.1784212
1.1784125
1.1783626
1.1783929
1.1783928
1.1784085
1.1783749
1.1783684
1.1783519
1.178331
1.1782773
1.1782053
1.1781533
1.1781183
1.1779934
1.1777341
1.1780909
1.1780018
1.17864
1.1789022
1.1780278
1.1780626
1.1779921
1.177986
1.1779897
1.1779957
1.1779834
1.1780048
1.1779518
1.1778484
1.1779598
1.1778315
1.1777974
1.1778006
1.1778481
1.1778046
1.1779341
1.1779674
1.1780949
1.1783837
1.1776213
1.1776211
1.1776043
1.1776057
1.1776126
1.1775429
1.1775683
1.1775274
1.1775129
1.1772603
1.1776218
1.1774813
1.1775862
1.1774785
1.1776506
1.1776042
1.1778375
1.178029
1.1777951
1.17822
1.1774146
1.1771892
1.1772525
1.1771468
1.1771252
1.1770488
1.1772667
1.1769253
1.1770755
1.1755333
1.1774501
1.1779165
1.1778501
1.1779994
1.1771241
1.1772167
1.1778894
1.178304
1.1776646
1.1780608
1.1768694
1.1768798
1.1768728
1.1768688
1.1768213
1.1767167
1.1765321
1.1754652
1.177736
1.1743515
1.1788886
1.1824004
1.1699283
1.1737855
1.1771128
1.1752047
1.178864
1.1776245
1.1774796
1.1776316
1.1765417
1.1765189
1.1765007
1.1765103
1.1765265
1.1765377
1.1764807
1.1760185
1.1763999
1.1761077
1.1783629
1.1846856
1.1681187
1.1735047
1.1764791
1.1773066
1.175305
1.1759916
1.1761071
1.1764752
1.176142
1.1761573
1.1761693
1.1761901
1.1761813
1.1762042
1.1762317
1.1761886
1.1761406
1.174942
1.1774847
1.1745744
1.1782297
1.1761729
1.1764287
1.1763563
1.1758327
1.1758786
1.1758196
1.1761046
1.1758533
1.1758688
1.1758813
1.1758819
1.1759329
1.1759743
1.1761104
1.1761316
1.1766263
1.1784544
1.173847
1.178069
1.1722684
1.1750233
1.1757737
1.1757816
1.175792
1.1756947
1.1757574
1.1760392
1.175642
1.1756083
1.1756235
1.175654
1.1756737
1.175755
1.175817
1.1759546
1.1762142
1.1772077
1.1742433
1.1753614
1.1749116
1.1753666
1.1755047
1.1755237
1.175347
1.1753518
1.1755237
1.1758104
1.175425
1.1753785
1.1753993
1.1754219
1.175447
1.1756009
1.1751779
1.175076
1.1762308
1.1772824
1.1739795
1.1757268
1.1744854
1.1759773
1.173807
1.1744844
1.1753512
1.1752252
1.1752871
1.1755465
1.1751676
1.175168
1.1751838
1.1752273
1.175323
1.1754865
1.1752901
1.1757013
1.1750548
1.1754316
1.1753057
1.1768612
1.1727809
1.1746209
1.1745501
1.17481
1.1750717
1.1750854
1.1750658
1.1753979
1.1749312
1.1749461
1.1749696
1.17499
1.1750816
1.1750427
1.1752292
1.175777
1.1750124
1.1765955
1.1738963
1.1755395
1.1734138
1.1747484
1.1743161
1.1746565
1.1746816
1.1748213
1.1748903
1.1752195
1.1747368
1.1747323
1.1747555
1.1747714
1.1748503
1.174942
1.1749601
1.1752662
1.1749238
1.1764027
1.1733332
1.1748456
1.1735385
1.1745431
1.1743025
1.1745896
1.1747099
1.174759
1.1747935
1.1751055
1.1745508
1.1745624
1.1745741
1.1745884
1.1746437
1.1746541
1.1747773
1.175047
1.1749364
1.1764096
1.172858
1.1752604
1.1729609
1.1742329
1.1744758
1.1746088
1.1746726
1.1746852
1.1747174
1.1750116
1.1744082
1.1744232
1.1744386
1.1744284
1.1744675
1.1744968
1.1745861
1.1751894
1.1744308
1.1741432
1.1745081
1.1739767
1.1745068
1.1741226
1.1748247
1.1746408
1.174617
1.1745642
1.174608
1.1748952
1.1743593
1.1743072
1.1743463
1.1743639
1.1744256
1.1745296
1.1746482
1.17524
1.1740288
1.175328
1.1729166
1.1735256
1.1743018
1.1743387
1.1743986
1.1744372
1.1744468
1.174429
1.1744212
1.1747443
1.174267
1.1742798
1.174319
1.1743803
1.1745435
1.1748003
1.1740006
1.174671
1.1738445
1.1739047
1.174207
1.1734869
1.1743239
1.1740849
1.1744816
1.1744982
1.1741798
1.1742337
1.1743027
1.1746158
1.174182
1.1741591
1.1741857
1.1741817
1.1741723
1.1741457
1.1746442
1.1747907
1.1744307
1.1765495
1.1713143
1.1733699
1.1738127
1.173896
1.174422
1.1743115
1.1741754
1.174163
1.1742915
1.1745601
1.1741602
1.1741529
1.1742188
1.1742566
1.1741674
1.1743627
1.1749138
1.1760663
1.172834
1.1752717
1.1721933
1.1735575
1.1736239
1.1736967
1.1743494
1.1740811
1.1742413
1.1741565
1.1742575
1.1745125
1.1740688
1.1740469
1.1740646
1.1741113
1.1742325
1.1745002
1.1738092
1.17368
1.1740027
1.1741086
1.1735955
1.1736991
1.1740756
1.174018
1.1740411
1.1740344
1.1741033
1.1741141
1.1740635
1.1743637
1.1739243
1.173927
1.1739445
1.173915
1.1739167
1.1738251
1.1740261
1.1737257
1.1740427
1.1734479
1.174239
1.174078
1.173718
1.1740359
1.1736491
1.1739472
1.1740581
1.1741073
1.1739781
1.1743071
1.1739353
1.17391
1.1739233
1.1739226
1.1739329
1.1739191
1.1739759
1.1740924
1.173669
1.1734382
1.1744156
1.1740503
1.1739526
1.1739914
1.1738535
1.173933
1.1740051
1.1740262
1.1740541
1.1743562
1.1739518
1.173943
1.1739625
1.1739489
1.1738999
1.1738513
1.173893
1.1736896
1.1740156
1.1735024
1.1743623
1.1740717
1.1740589
1.1740631
1.1739115
1.1739545
1.1739783
1.1740011
1.1740342
1.1743336
1.173965
1.1739734
1.1740024
1.1740488
1.1739527
1.1741057
1.1738331
1.1737676
1.1740959
1.1741806
1.1736516
1.1739098
1.1740063
1.1740365
1.1739947
1.1740253
1.1739779
1.1740234
1.1739868
1.1743165
1.1739212
1.1739155
1.1739148
1.173898
1.1740002
1.1740076
1.1739639
1.1741292
1.1737999
1.1740059
1.1739133
1.1739608
1.1740136
1.1740171
1.1740138
1.1739931
1.1740504
1.1740223
1.1740485
1.1743533
1.1739785
1.1739714
1.1739773
1.1740203
1.1739516
1.1739902
1.1739491
1.1738915
1.1740514
1.1739413
1.1740108
1.174009
1.1740304
1.1740226
1.1740414
1.1740421
1.1740597
1.1740206
1.1740674
1.1743664
1.1739839
1.1739849
1.173998
1.1739897
1.1739902
1.1740043
1.1740048
1.1740714
1.1739553
1.17397
1.174039
1.1740198
1.1740402
1.1740472
1.1740401
1.1740453
1.1740469
1.1740327
1.1740675
1.1743706
1.174011
1.1740088
1.1740074
1.1739863
1.1740378
1.1740201
1.1740517
1.1740175
1.1740466
1.1740064
1.1740699
1.1740311
1.1740582
1.174043
1.174058
1.1740408
1.1740412
1.1740543
1.1740745
1.1743662
1.1740394
1.1740368
1.1740439
1.1740424
1.1740475
1.1740354
1.1740519
1.174033
1.1740687
1.1740237
1.1740817
1.1740361
1.1740677
1.1740558
1.1740549
1.1740503
1.1740518
1.1740483
1.1740784
1.1743707
1.1740651
1.1740643
1.1740663
1.1740651
1.1740598
1.1740518
1.1740702
1.1740446
1.1740785
1.174037
1.1740819
1.1740507
1.174079
1.1740684
1.174073
1.1740736
1.1740701
1.1740733
1.1740651
1.1743656
1.1783771
1.1783918
1.1783889
1.178397
1.1783925
1.1784103
1.1784143
1.1783727
1.1783563
1.1782903
1.1782337
1.178213
1.1782017
1.1781575
1.1781493
1.178166
1.1782742
1.1784389
1.1783916
1.1786706
1.1779942
1.1779889
1.1780052
1.1779936
1.1779786
1.1779795
1.1779811
1.1779346
1.1779987
1.1778467
1.1778456
1.1778149
1.177839
1.1778845
1.1778134
1.1779162
1.1781134
1.1784179
1.1777301
1.1783283
1.1776136
1.177592
1.1775785
1.1775915
1.1775739
1.1775652
1.177441
1.1777276
1.1774579
1.1773639
1.1772477
1.1771849
1.1771796
1.1774894
1.1771143
1.17682
1.1781234
1.177229
1.1805971
1.1798118
1.1772032
1.177247
1.1772296
1.1772248
1.1772377
1.1772576
1.17733
1.1774041
1.1766761
1.175962
1.1761516
1.1689037
1.1828576
1.1739821
1.1808298
1.1760186
1.1815655
1.1792336
1.1798438
1.1793786
1.1769077
1.1768836
1.1768993
1.1769218
1.1770077
1.1772142
1.1770403
1.17783
1.1772387
1.1830095
1.1700312
1.171525
1.1801287
1.1752169
1.1786732
1.1773565
1.1785368
1.1780221
1.1782218
1.1782473
1.1766095
1.1764933
1.1765276
1.1765852
1.1766868
1.1769079
1.1770846
1.1784339
1.1734661
1.1731222
1.1805349
1.178553
1.1737343
1.1746838
1.1774828
1.1769775
1.1775492
1.1765794
1.1770337
1.1771414
1.1761858
1.1761981
1.1762094
1.1762319
1.1762826
1.1764272
1.1764017
1.1765136
1.1751983
1.1747612
1.1775838
1.1757479
1.1769622
1.1760506
1.1778172
1.1785321
1.1742393
1.1750266
1.1756934
1.1760962
1.1758869
1.1758866
1.1758984
1.1759091
1.1759695
1.1760329
1.176068
1.1761521
1.1759974
1.1760841
1.1757502
1.1754549
1.1761428
1.1758363
1.1763976
1.1766991
1.1754244
1.1756993
1.1752873
1.1757044
1.1756553
1.1756089
1.1756266
1.1756625
1.1756716
1.1757508
1.1758954
1.1760973
1.1761973
1.1779416
1.1734026
1.1749067
1.175342
1.1756363
1.1755222
1.175727
1.1753873
1.1754935
1.1753281
1.1757063
1.1753535
1.1753483
1.1753513
1.1753211
1.1753315
1.1752874
1.1755345
1.1752275
1.1760367
1.1761784
1.1745822
1.1749878
1.175388
1.1754553
1.1750051
1.1755119
1.174875
1.1750786
1.1751838
1.175553
1.1751416
1.1751329
1.1751356
1.1751365
1.1752192
1.1752702
1.1754698
1.1756532
1.1751208
1.1755664
1.175073
1.1758462
1.1739236
1.1747815
1.1748972
1.1751042
1.1750072
1.1750835
1.1751174
1.1754522
1.1749328
1.1749293
1.1749644
1.1749886
1.1750265
1.1751129
1.1753577
1.1761548
1.174777
1.1766187
1.1728919
1.1747181
1.1740419
1.1744641
1.1749329
1.1749897
1.1748673
1.1749208
1.1749792
1.1752938
1.1747474
1.1747431
1.1747558
1.1747831
1.174838
1.1749706
1.1751872
1.1760386
1.174447
1.1769272
1.1718804
1.1741862
1.1742422
1.1745139
1.1746377
1.174736
1.1748345
1.1747897
1.1748875
1.1751835
1.1745839
1.1745642
1.1745937
1.1746161
1.1747042
1.1748374
1.1749952
1.1756544
1.1740028
1.1749127
1.1734412
1.1737327
1.1751129
1.1745147
1.1747975
1.1746789
1.1747037
1.1746861
1.1747608
1.1750432
1.1744921
1.1744351
1.1744574
1.1744774
1.1745286
1.1746414
1.1748251
1.1752066
1.1745484
1.176732
1.1718141
1.1732139
1.1748245
1.1745315
1.1744945
1.1744942
1.1744951
1.1745213
1.1746064
1.1748901
1.1743567
1.1743433
1.1743869
1.1744634
1.1745957
1.1751525
1.1742979
1.1751575
1.1741443
1.1762455
1.1722613
1.1748078
1.1726445
1.1736684
1.174415
1.1744004
1.1743779
1.1743774
1.1744538
1.1747467
1.1743187
1.1743039
1.1743617
1.174494
1.1746689
1.1753404
1.1736412
1.174737
1.1743043
1.1770281
1.1709849
1.1737945
1.1733087
1.1737326
1.1743211
1.1743712
1.1741801
1.1742381
1.1743239
1.1746318
1.1742222
1.1741821
1.174226
1.1742852
1.1743203
1.174675
1.1741064
1.1746728
1.1745313
1.1769686
1.1707395
1.1729063
1.1738382
1.1738235
1.1743672
1.174231
1.1742275
1.1741909
1.1743156
1.1745884
1.1741822
1.1741421
1.1741883
1.1742593
1.1743467
1.1747169
1.1744056
1.1755398
1.1732463
1.1760412
1.1713621
1.1727774
1.1744581
1.1742066
1.1740843
1.1742039
1.1740723
1.1741482
1.17407
1.1744267
1.1740371
1.1740444
1.1740592
1.1741319
1.1740979
1.174199
1.1742375
1.174741
1.1734913
1.1733136
1.1741403
1.1740039
1.1736885
1.1739638
1.1741446
1.1741945
1.1740398
1.1740795
1.174051
1.1743781
1.1739713
1.1739343
1.1739596
1.1739413
1.1739825
1.1739917
1.1740173
1.1741853
1.1739489
1.1744922
1.1734717
1.1736594
1.1741512
1.1739347
1.1743918
1.1740493
1.1741769
1.1740949
1.1741704
1.1744696
1.1739352
1.173917
1.1739243
1.1739233
1.1738794
1.1737206
1.1740056
1.1735327
1.1742434
1.1735429
1.1744805
1.1738845
1.1742506
1.1740592
1.1741954
1.1740104
1.1741552
1.1741153
1.1741515
1.174429
1.1739816
1.1739776
1.1740116
1.1740619
1.1739922
1.1742024
1.173731
1.1740364
1.1738102
1.1744546
1.173453
1.1738559
1.1740489
1.1740463
1.1740253
1.1739936
1.1740526
1.1740296
1.1741057
1.1743969
1.1739698
1.1739695
1.1739835
1.1739608
1.1740786
1.1741653
1.1741669
1.1749515
1.1730122
1.1739052
1.1737907
1.1739171
1.174
1.1739995
1.1740306
1.1740242
1.1740206
1.174017
1.1740569
1.174353
1.1739349
1.1739198
1.1739347
1.173889
1.1739774
1.1738817
1.174047
1.1738314
1.1741106
1.1738542
1.1741031
1.1740119
1.1740298
1.1740182
1.1740563
1.1740767
1.17401
1.1740443
1.1740078
1.1743207
1.1739869
1.1739763
1.1739831
1.1739947
1.1740036
1.1740629
1.1740786
1.1743693
1.1736126
1.1738742
1.1740174
1.1740059
1.1740456
1.1740564
1.1740787
1.1740915
1.1740392
1.174039
1.1740265
1.1743372
1.1740017
1.1740006
1.1740077
1.1740051
1.1740254
1.1740235
1.1739849
1.1739418
1.1740875
1.1739955
1.1740549
1.1740302
1.1740553
1.1740525
1.1740629
1.1740718
1.1740556
1.1740494
1.1740525
1.1743577
1.1740474
1.1740413
1.1740459
1.1740632
1.1740188
1.1740547
1.1740159
1.1740183
1.1740728
1.1740285
1.1740778
1.174049
1.1740671
1.1740637
1.174061
1.1740575
1.1740585
1.1740761
1.1740746
1.1743793
1.1740626
1.1740572
1.1740644
1.1740542
1.1740638
1.1740521
1.1740676
1.1740435
1.1740804
1.1740319
1.1740985
1.1740476
1.1740771
1.1740666
1.1740714
1.1740721
1.1740712
1.1740754
1.1740792
1.1743805
1.1740806
1.1740797
1.1740847
1.1740742
1.1740911
1.1740958
1.1740756
1.1740648
1.1741002
1.1740572
1.174105
1.1740668
1.17409
1.1740768
1.1741028
1.1741065
1.1741107
1.1740827
1.1740879
1.1743718
1.1783629
1.1783736
1.1784014
1.1784117
1.1784229
1.1783796
1.1783859
1.1783804
1.1783028
1.1782728
1.1782378
1.1781758
1.1781621
1.1781584
1.1781568
1.1781256
1.1780832
1.1780297
1.1784038
1.1786772
1.1779598
1.1779369
1.1779366
1.1779299
1.1778984
1.1780411
1.1779743
1.1779082
1.1780106
1.1779229
1.1778414
1.1777824
1.1777475
1.1777365
1.1779332
1.1779361
1.1779305
1.1778295
1.1781265
1.1784118
1.1775715
1.1775766
1.1775759
1.177525
1.1775043
1.177588
1.1775961
1.1775047
1.1775749
1.1773454
1.1772881
1.1767816
1.1773742
1.1759356
1.1791923
1.1780748
1.1784462
1.1780291
1.1780591
1.1782442
1.177538
1.1772118
1.1772772
1.1771002
1.1771806
1.1773276
1.1773156
1.1776663
1.1766162
1.1766817
1.1767385
1.1750071
1.1782253
1.1765543
1.177918
1.1780602
1.178625
1.1794682
1.1763278
1.1767945
1.176894
1.1768839
1.1768855
1.1768835
1.1769171
1.1769235
1.1769257
1.1769878
1.1770348
1.1782519
1.176326
1.1836326
1.1667207
1.1706136
1.1803557
1.1769423
1.1802123
1.1788817
1.1780451
1.1780019
1.1765775
1.1765611
1.1765969
1.1766463
1.1766882
1.1768544
1.176354
1.1763325
1.1749787
1.1720805
1.1806875
1.1752402
1.1777093
1.1733954
1.1800707
1.1771457
1.1784323
1.1774888
1.1780348
1.1778725
1.1762544
1.1762412
1.1762507
1.1763046
1.1763864
1.1765953
1.176251
1.1768265
1.1752559
1.1760343
1.1761768
1.177594
1.1740379
1.1749669
1.1770381
1.1766377
1.1767636
1.1765261
1.1768712
1.1768887
1.1759201
1.1759226
1.1759411
1.1759582
1.1760529
1.176195
1.1762362
1.1768482
1.1751718
1.1751974
1.1761808
1.174567
1.1769907
1.1760469
1.1763001
1.1761306
1.1761273
1.1760816
1.1759093
1.1762094
1.1756339
1.1756432
1.1756698
1.1756849
1.1757555
1.1758645
1.1760929
1.1768026
1.1765654
1.181922
1.1693388
1.1739408
1.1753246
1.1756306
1.175663
1.1759096
1.1754517
1.1756721
1.1752546
1.1756607
1.1753768
1.1753759
1.1753762
1.1753972
1.1754384
1.1755287
1.1755524
1.1758459
1.1759381
1.1774028
1.1730311
1.1745842
1.1751631
1.1752083
1.1753547
1.1754395
1.1753112
1.1753621
1.1753468
1.1756953
1.1751597
1.1751586
1.1751576
1.1751761
1.1751981
1.1752371
1.1753145
1.1754041
1.1757741
1.176995
1.1731344
1.1739641
1.1754434
1.1750839
1.1752817
1.1752793
1.1752422
1.1752484
1.1752349
1.1755582
1.1749544
1.1749595
1.1749948
1.1750269
1.1750292
1.1750223
1.175139
1.1753574
1.1756375
1.1771731
1.1724664
1.1744275
1.1746483
1.1749044
1.174969
1.1750823
1.1749649
1.1750797
1.1749663
1.175294
1.1747952
1.1747465
1.174778
1.1747928
1.1748486
1.1749034
1.1749917
1.1754071
1.1753441
1.1775934
1.1716241
1.1739126
1.1745136
1.1747785
1.1746383
1.1747185
1.174788
1.1747919
1.1748697
1.1751976
1.1746197
1.1746169
1.1746251
1.1746391
1.1747052
1.1748118
1.1748917
1.1752603
1.1750291
1.1774655
1.1716793
1.1752719
1.1724421
1.1740892
1.1742185
1.1744464
1.1745427
1.1746065
1.1747242
1.1750394
1.1744785
1.1744604
1.1744797
1.1744855
1.1745528
1.1746593
1.1749381
1.1754522
1.1741481
1.1756443
1.173114
1.1750113
1.1730674
1.1744659
1.1737592
1.17444
1.1741005
1.1744276
1.1743562
1.1747365
1.174311
1.1742875
1.1743115
1.1742966
1.1743881
1.1744112
1.1749371
1.1753245
1.1742938
1.1768764
1.1719049
1.1739771
1.1735865
1.1740326
1.1741302
1.1743197
1.1742773
1.1743839
1.1743173
1.1746487
1.1742872
1.1742765
1.1743233
1.174384
1.1744462
1.1744815
1.1739523
1.1742933
1.1748381
1.1762103
1.1726575
1.1756971
1.171728
1.1734614
1.1739259
1.1741712
1.1741736
1.1742466
1.1742782
1.1746026
1.1742153
1.1741984
1.1742284
1.1742998
1.1742637
1.174327
1.1742501
1.174536
1.1744859
1.1760451
1.1722966
1.1746421
1.172512
1.1737178
1.1737145
1.1740778
1.1741387
1.1742086
1.1741943
1.1745056
1.1741888
1.1741708
1.1742098
1.1743149
1.1744958
1.1749401
1.1734258
1.1737339
1.1742267
1.1737622
1.1742166
1.1744164
1.173423
1.1742052
1.1737489
1.1741105
1.1740129
1.1741257
1.1740568
1.1743852
1.1740693
1.1740583
1.1740741
1.1741496
1.1741731
1.1744259
1.1737889
1.1742499
1.1737066
1.1741281
1.1737198
1.173643
1.1745821
1.1741956
1.174159
1.1741786
1.1741235
1.1741325
1.1741374
1.1744318
1.1739684
1.1739497
1.1739508
1.1739139
1.1739785
1.1738512
1.1740683
1.1736653
1.1742696
1.1739505
1.1741341
1.1740072
1.1742135
1.1740011
1.1742893
1.1741816
1.1742006
1.1741755
1.1741332
1.1744161
1.1739823
1.1739631
1.1739911
1.1739867
1.1740345
1.1741272
1.1741062
1.1746494
1.173403
1.1743213
1.1735152
1.1739064
1.1741037
1.1740932
1.1740772
1.1740962
1.1741026
1.1741087
1.1741231
1.1744143
1.1739914
1.1739914
1.1740142
1.1740367
1.1740321
1.174105
1.173876
1.1739725
1.1738621
1.1736953
1.1742605
1.1740525
1.174012
1.1740306
1.1740512
1.1740053
1.1740703
1.17405
1.1740879
1.1744006
1.1740101
1.1740093
1.1740235
1.1740171
1.1739962
1.1740054
1.1739874
1.1739854
1.1739671
1.1741356
1.1737987
1.173967
1.1740333
1.1740357
1.1740514
1.1740424
1.1740701
1.1740515
1.1740736
1.1743794
1.1740243
1.1740194
1.1740071
1.1740431
1.1740305
1.1740426
1.173968
1.1741582
1.1738434
1.1739715
1.1739685
1.1740118
1.1740657
1.1740689
1.1740795
1.1740967
1.1740293
1.1740374
1.1740558
1.1743632
1.1740178
1.1740213
1.1740007
1.1740079
1.1740215
1.1740458
1.1740902
1.1742333
1.1738219
1.1739357
1.1740458
1.174036
1.1740746
1.1740841
1.1740988
1.1741073
1.1740653
1.174074
1.1740787
1.1743741
1.1740236
1.1740207
1.1740237
1.1740212
1.1740243
1.1740169
1.1740263
1.1739657
1.1741194
1.1740306
1.1740906
1.1740596
1.1740825
1.1740773
1.1740852
1.1740782
1.1740718
1.1740732
1.174096
1.1743922
1.1740636
1.1740572
1.1740646
1.1740671
1.1740635
1.1740759
1.1740539
1.1740454
1.1740942
1.1740529
1.1740978
1.1740717
1.1740929
1.17408
1.1740869
1.1740839
1.1740869
1.1740872
1.1740998
1.1744037
1.1740864
1.1740809
1.1740895
1.1740853
1.174096
1.1740838
1.1740971
1.1740748
1.1741098
1.1740656
1.174122
1.174081
1.1741104
1.1740941
1.1740999
1.1740962
1.1740953
1.1740954
1.1741018
1.1744078
1.1741073
1.1741049
1.1741104
1.1741039
1.1741088
1.1740976
1.1741167
1.1740933
1.1741303
1.1740842
1.1741344
1.1740918
1.1741171
1.1741028
1.1741095
1.1741031
1.1740947
1.1740866
1.1741153
1.1744122
1.1783359
1.1783994
1.1784217
1.1784147
1.1783809
1.1783722
1.178367
1.17833
1.1783441
1.178258
1.1782569
1.178197
1.1781493
1.1781442
1.1781221
1.1781249
1.1780938
1.1780815
1.1781004
1.1783919
1.1779497
1.1779268
1.1779591
1.1779586
1.177953
1.1779735
1.1779435
1.177967
1.1779709
1.1779431
1.1778091
1.1778043
1.1778478
1.1778572
1.1779528
1.1780351
1.1777445
1.1776693
1.1779018
1.1780863
1.177557
1.1775414
1.1775536
1.177522
1.1775158
1.1774346
1.1772769
1.1780542
1.1775899
1.1776451
1.1772783
1.1772754
1.177385
1.1773515
1.1777827
1.1781167
1.1781006
1.1787227
1.1764252
1.1769504
1.1772311
1.1771731
1.1771909
1.1771858
1.1771914
1.1772309
1.1772017
1.1773776
1.1770295
1.1773153
1.1764675
1.1753504
1.1785303
1.1756651
1.1772701
1.1737086
1.1834908
1.1784742
1.1793202
1.1789763
1.1768717
1.1768493
1.1768624
1.1768697
1.1768843
1.1769067
1.1769611
1.1771842
1.1749255
1.1714209
1.1825177
1.1769894
1.1778752
1.1776332
1.1749185
1.1747006
1.1788649
1.1775337
1.178791
1.1784791
1.1765269
1.1765391
1.176542
1.1765475
1.1766003
1.1766542
1.1767382
1.1772332
1.1752037
1.175164
1.1782475
1.1797148
1.174304
1.1781161
1.1735664
1.1756821
1.1761421
1.1767716
1.1760728
1.1767352
1.1762471
1.17623
1.1762353
1.1762457
1.1762816
1.1763402
1.1763762
1.1766588
1.175139
1.1736726
1.1782579
1.1748776
1.1783623
1.1769428
1.1763135
1.1763381
1.1757457
1.1758307
1.1763758
1.1766432
1.175988
1.1759537
1.1759799
1.176057
1.1761764
1.1764053
1.1758715
1.1764443
1.1764907
1.1791883
1.1726501
1.1754805
1.1753761
1.1761571
1.1754312
1.1758396
1.1757594
1.1758512
1.1756808
1.1760873
1.1756921
1.1756972
1.1757442
1.1757866
1.1759073
1.1761655
1.1755318
1.176161
1.1762362
1.1781384
1.1734509
1.1769527
1.1730489
1.174838
1.1752383
1.1754593
1.1755274
1.1755844
1.1754407
1.1758564
1.1754339
1.1754215
1.1754325
1.1754665
1.1755468
1.1756648
1.1754071
1.1757621
1.1759086
1.1774308
1.1732807
1.1750803
1.1744604
1.1749236
1.1751908
1.1752541
1.1754884
1.1754317
1.1754622
1.1757735
1.1753045
1.175242
1.1753296
1.1754478
1.1750585
1.1751757
1.175439
1.175608
1.1753928
1.1763075
1.1738332
1.1753669
1.1741437
1.1744507
1.1755269
1.1753318
1.1753089
1.1753044
1.1753999
1.1756501
1.1750538
1.1750183
1.1750775
1.1751531
1.1750129
1.1751231
1.1753252
1.1759894
1.1748896
1.1762958
1.1731165
1.1746064
1.1748379
1.1751913
1.1748143
1.1747886
1.1748578
1.1749652
1.1751287
1.1754099
1.1747605
1.1747682
1.1747851
1.1747839
1.1747835
1.1748677
1.1748115
1.1747946
1.1753299
1.1750464
1.1741579
1.1740802
1.1750349
1.1748163
1.1749549
1.1748425
1.1748632
1.1748497
1.1749536
1.175281
1.1746651
1.1746554
1.1746794
1.1747381
1.174817
1.1750572
1.1744203
1.174701
1.1750438
1.1758425
1.1734798
1.1740767
1.1745351
1.1745208
1.1747259
1.1746731
1.1747291
1.1747261
1.1748077
1.1750998
1.1744978
1.1744844
1.1745023
1.1745245
1.1745764
1.1746778
1.1745256
1.1747917
1.1747352
1.1761487
1.172707
1.1739423
1.1744601
1.1745707
1.1743966
1.1744318
1.1746366
1.1746119
1.1746589
1.1749521
1.1743592
1.1743299
1.1743255
1.1743522
1.1743945
1.1744256
1.1745356
1.1745568
1.1741663
1.1736737
1.1747698
1.1737828
1.1749256
1.1743555
1.1746157
1.1744756
1.1746303
1.1745638
1.1745711
1.1748775
1.1743137
1.1742665
1.1743195
1.1743185
1.1743231
1.1744209
1.1741237
1.1741424
1.1745988
1.1749595
1.1737233
1.1748756
1.1731101
1.1735257
1.174634
1.1744064
1.1746112
1.174509
1.174507
1.1747944
1.1742558
1.174269
1.1743149
1.1744072
1.1744619
1.174806
1.1740869
1.1752007
1.1732342
1.1740176
1.1740592
1.1739126
1.1742007
1.1740559
1.174378
1.174267
1.1744798
1.1743926
1.1743783
1.1746708
1.1741693
1.1741523
1.1742004
1.174251
1.1743171
1.174515
1.1744869
1.1757019
1.1728978
1.1753245
1.1722838
1.1732328
1.1746083
1.1742552
1.1743887
1.1743637
1.1742345
1.1742351
1.1742432
1.1745613
1.174069
1.1740215
1.1740225
1.1739799
1.1740473
1.1739153
1.1740498
1.1734302
1.1745816
1.1735822
1.1744419
1.1735773
1.1746559
1.1739779
1.1747434
1.1744054
1.1743214
1.174236
1.174286
1.1745736
1.1740331
1.1740639
1.1740896
1.1741217
1.1740771
1.174224
1.1742223
1.1748525
1.1728774
1.1727536
1.1751707
1.1742554
1.1742834
1.1741518
1.1743132
1.174225
1.1742628
1.1742069
1.1742405
1.1744986
1.1740288
1.1740339
1.1740268
1.1740418
1.1740094
1.173973
1.1742404
1.1739332
1.1740768
1.1743605
1.1736866
1.1740152
1.1741474
1.1742158
1.1740447
1.1740956
1.1740988
1.1741074
1.1741308
1.174435
1.1740659
1.1740653
1.1740764
1.174088
1.1739951
1.1740447
1.174023
1.1741745
1.1738303
1.1741584
1.1738686
1.1740295
1.1740921
1.1741484
1.1739962
1.1740505
1.17404
1.1740647
1.1740767
1.1744058
1.1740473
1.1740435
1.1740558
1.174076
1.1741065
1.1743619
1.1736153
1.1735959
1.1742768
1.1739676
1.1741304
1.1740806
1.1741074
1.1741193
1.1740732
1.1741069
1.1740439
1.1740645
1.1740885
1.1744036
1.1740886
1.1740988
1.1740033
1.174027
1.1740437
1.174057
1.1740753
1.1741959
1.1739183
1.1740184
1.1740381
1.1740651
1.1741048
1.1741213
1.1740998
1.1740982
1.1741073
1.1740981
1.1741112
1.1744102
1.1740704
1.1740722
1.1740344
1.1740716
1.1740756
1.1740976
1.1740487
1.1742118
1.1739282
1.1740102
1.1741027
1.1740833
1.1741225
1.1741156
1.174136
1.1741373
1.174124
1.1741234
1.1741266
1.1744173
1.1740871
1.1740737
1.1740835
1.1740838
1.1740879
1.1740791
1.1740608
1.1740313
1.1741473
1.1740738
1.1741349
1.1741139
1.1741433
1.174137
1.174141
1.1741317
1.1741213
1.174128
1.174127
1.1744303
1.1741214
1.1741223
1.1741189
1.17413
1.1740968