/*--------------------------------*- C++ -*----------------------------------*\
| =========                 |                                                 |
| \\      /  F ield         | OpenFOAM: The Open Source CFD Toolbox           |
|  \\    /   O peration     | Version:  1.7.x                                 |
|   \\  /    A nd           | Web:      www.OpenFOAM.com                      |
|    \\/     M anipulation  |                                                 |
\*---------------------------------------------------------------------------*/
FoamFile
{
    version     2.0;
    format      ascii;
    class       volScalarField;
    location    "0.003";
    object      T;
}
// * * * * * * * * * * * * * * * * * * * * * * * * * * * * * * * * * * * * * //

dimensions      [0 0 0 1 0 0 0];

internalField   nonuniform List<scalar> 
206988
(
301.00753
301.0095
301.0021
301
300.9925
300.99334
300.99164
301.0094
300.99806
300.99316
300.98594
300.97663
301.00056
301.05773
301.18383
301.47056
300.35317
300.67485
300.74889
300.70624
300.94991
300.95094
300.94687
300.94854
300.95088
300.94171
300.94861
300.94895
300.94
300.92425
300.94567
300.94243
300.95547
300.97643
300.95611
300.96542
300.79073
300.82012
300.83828
300.76427
300.89776
300.90171
300.9024
300.89335
300.89399
300.88862
300.88544
300.89687
300.90817
300.90953
300.84412
300.8716
301.00632
301.23617
300.56842
300.78756
300.70635
300.79016
300.70593
300.66743
300.9396
300.82256
300.8325
300.84305
300.85924
300.85347
300.83146
300.78381
300.87382
300.72048
300.41386
300.40588
301.18658
301.30399
300.48252
300.95829
300.3931
300.63703
300.63583
300.57777
300.76551
300.82728
300.81802
300.80736
300.7887
300.74351
300.74961
300.44482
301.03273
300.14738
301.11974
301.23054
299.97002
299.63379
301.73271
300.74352
301.30562
301.03035
300.88773
300.77525
300.77688
300.78451
300.77941
300.77358
300.76768
300.75172
300.79474
300.73813
301.00629
301.31939
299.68208
299.37497
302.16865
300.78953
301.42641
300.9581
301.13711
301.05925
300.90235
300.80994
300.75095
300.75413
300.75264
300.74578
300.74282
300.74261
300.75882
300.73567
300.75241
300.37
300.9984
300.30558
301.25608
300.86802
301.03148
300.89327
300.96697
300.94715
300.81698
300.73642
300.72312
300.72
300.72141
300.72204
300.72933
300.73508
300.73683
300.67257
300.57905
300.2601
301.11411
300.81059
300.68842
300.78082
300.87555
300.82959
300.85939
300.85345
300.77434
300.70925
300.68824
300.68499
300.68642
300.68406
300.68543
300.68213
300.69424
300.64408
300.56394
300.20949
301.15039
300.59549
300.89822
300.5672
301.04912
300.85696
300.84718
300.81561
300.83021
300.75718
300.6492
300.6481
300.64433
300.63721
300.67275
300.65808
300.64907
300.56528
300.75884
300.83049
300.49807
300.58839
300.77837
300.57588
300.73648
300.43815
301.17326
300.91356
300.99634
300.84262
300.61925
300.61809
300.61389
300.59743
300.58922
300.49857
300.70141
300.59196
300.5992
300.27751
300.97112
300.78828
300.66529
300.69723
300.76058
300.68443
300.79463
300.75202
300.82052
300.7098
300.60599
300.60489
300.602
300.58879
300.57099
300.51402
300.64034
300.57939
300.50505
300.30063
300.85016
300.53237
300.84302
300.78053
300.71057
300.71417
300.67173
300.69323
300.68742
300.60228
300.58967
300.5895
300.58321
300.57539
300.56675
300.51963
300.55147
300.41223
300.67491
300.44627
300.81415
300.87928
300.41888
300.50339
300.75696
300.69338
300.66914
300.65527
300.64637
300.56093
300.56745
300.5685
300.56675
300.55974
300.54555
300.51655
300.62042
300.62616
300.5204
300.32672
300.95844
301.06525
300.30522
300.65176
300.48356
300.57208
300.60019
300.61065
300.60173
300.53055
300.55518
300.5576
300.54991
300.54746
300.54431
300.52171
300.52126
300.61552
300.75009
300.74307
300.48997
300.4598
300.85744
300.7366
300.54627
300.54322
300.58168
300.57317
300.62332
300.5346
300.53352
300.53007
300.53003
300.52164
300.50848
300.47354
300.48126
300.38046
300.77228
300.37832
300.83358
300.81399
300.49607
300.60191
300.53282
300.55608
300.57601
300.57335
300.59759
300.50933
300.50625
300.51086
300.50307
300.46927
300.44429
300.35922
300.69637
300.64651
300.61359
301.00068
300.16073
300.81554
300.26911
300.50138
300.5162
300.5651
300.54102
300.56367
300.56224
300.48432
300.51018
300.4973
300.49016
300.45853
300.45085
300.33683
300.62427
300.41799
300.49197
299.90877
301.22632
300.72405
300.60362
300.55068
300.58013
300.54225
300.5992
300.58227
300.57217
300.48554
300.49759
300.50457
300.49675
300.48385
300.46158
300.38181
300.36836
299.961
300.94115
300.44941
300.80518
300.55129
300.66727
300.53814
300.64852
300.59176
300.58891
300.57028
300.56316
300.47871
300.52528
300.50958
300.50786
300.50359
300.48915
300.47743
300.46734
300.23606
300.70267
300.09803
301.02164
300.44976
300.81652
300.58239
300.66392
300.59499
300.5851
300.56739
300.57345
300.49156
300.52393
300.51874
300.51923
300.51619
300.51098
300.48897
300.52242
300.4725
300.53827
300.33572
300.79712
300.58874
300.61068
300.5415
300.62899
300.5693
300.57889
300.55323
300.58223
300.49745
300.50288
300.51857
300.51533
300.50611
300.50384
300.47284
300.52211
300.42325
300.60985
300.40485
300.70726
300.53194
300.58266
300.51465
300.60878
300.56512
300.58974
300.57249
300.55912
300.47317
300.51334
300.51318
300.51147
300.49871
300.53101
300.51835
300.53438
300.5302
300.57043
300.69639
300.38727
300.50671
300.52714
300.51108
300.57368
300.55615
300.56776
300.56395
300.54418
300.46117
300.5106
300.51207
300.50957
300.49926
300.51218
300.48156
300.49406
300.34119
300.68264
300.45214
300.66029
300.56008
300.5358
300.53251
300.55598
300.55452
300.53966
300.54352
300.53351
300.4567
300.52208
300.52244
300.526
300.52792
300.5269
300.53269
300.53775
300.59731
300.47237
300.53973
300.51787
300.53558
300.53969
300.53592
300.53771
300.53748
300.54163
300.53828
300.53431
300.45596
300.51695
300.51595
300.51285
300.50532
300.5441
300.52535
300.52803
300.48848
300.5807
300.53829
300.53952
300.53746
300.53865
300.53621
300.53776
300.53002
300.53643
300.5358
300.54341
300.45985
300.5347
300.53466
300.53389
300.53784
300.52704
300.53531
300.53368
300.54434
300.52603
300.53375
300.54155
300.53976
300.54085
300.53717
300.537
300.53543
300.53845
300.53953
300.53712
300.46166
300.53522
300.53473
300.536
300.53078
300.54548
300.54687
300.53528
300.53679
300.54151
300.5364
300.54079
300.53983
300.54246
300.54207
300.54097
300.54235
300.54042
300.54234
300.54181
300.46314
300.54007
300.53932
300.5404
300.5408
300.54195
300.54064
300.54196
300.53931
300.54333
300.53743
300.54324
300.53928
300.54132
300.5403
300.54064
300.5428
300.54425
300.5409
300.54161
300.46345
300.54183
300.54182
300.54165
300.54118
300.54474
300.54294
300.54433
300.54165
300.54419
300.54187
300.54798
300.54121
300.54389
300.54279
300.54229
300.54096
300.54067
300.54068
300.54171
300.46488
300.98519
300.98669
301.00038
300.99423
300.9883
300.98375
300.97925
300.97966
300.97562
300.96283
300.96911
300.96849
300.9729
300.97302
300.9999
301.06641
300.97414
301.01393
300.82416
300.7597
300.94107
300.93108
300.94962
300.94793
300.94829
300.93924
300.94654
300.92251
300.93988
300.94182
300.92206
300.91812
300.9399
300.93406
300.91642
300.93039
300.90251
300.90667
300.82453
300.75308
300.89795
300.89701
300.90346
300.89911
300.90008
300.91262
300.90797
300.90544
300.91648
300.95717
300.88994
300.88494
300.88721
300.89793
300.86205
300.86431
300.8078
300.75271
300.80176
300.70503
300.81082
300.8685
300.85174
300.87634
300.88294
300.89569
300.84661
300.92048
300.90353
301.2627
300.81164
300.64534
300.70629
300.64877
300.87868
300.84859
300.68087
300.56859
300.73189
300.62212
300.81469
300.81081
300.81362
300.81217
300.82328
300.83879
300.90489
301.15737
300.61058
301.43876
300.32514
299.38452
302.61872
301.59672
300.77307
301.24418
300.32356
300.62279
300.66786
300.62418
300.76967
300.77495
300.78019
300.77773
300.77509
300.77264
300.80014
300.8698
300.84479
300.88702
300.35555
298.65923
302.96696
301.5758
300.826
300.60735
301.11717
300.93388
300.90647
300.80996
300.75517
300.75057
300.74875
300.74107
300.74401
300.73698
300.753
300.77253
300.78317
301.04079
300.4906
301.13057
300.28167
300.78203
300.73874
300.73269
300.87096
300.85595
300.8795
300.78554
300.72238
300.71811
300.71539
300.71469
300.70374
300.68592
300.69042
300.6491
300.56385
300.08073
301.30725
300.11368
301.71321
300.99309
300.81008
300.79332
300.7904
300.8131
300.80071
300.72425
300.67797
300.68665
300.68318
300.67596
300.67265
300.65408
300.64684
300.59832
300.56046
300.24697
301.12347
300.71547
300.95591
300.81548
300.78034
300.76683
300.81292
300.80995
300.769
300.6943
300.64412
300.65604
300.65152
300.64688
300.64321
300.60859
300.73459
300.69587
300.46969
300.16442
301.10768
300.54498
300.98032
300.56094
301.11207
300.94146
300.72566
300.75768
300.74473
300.67759
300.62471
300.62435
300.62106
300.61038
300.58818
300.539
300.63456
300.4611
300.69878
300.53776
300.76064
300.12203
301.33275
300.84754
300.83786
300.77696
300.71604
300.7154
300.72281
300.63781
300.60699
300.60274
300.59727
300.59147
300.57717
300.53526
300.55287
300.41418
300.61328
300.18653
301.03296
300.34609
301.10251
300.72797
300.87768
300.7143
300.73766
300.70729
300.69364
300.60981
300.58827
300.5875
300.58359
300.57676
300.56461
300.53228
300.53023
300.44843
300.56209
300.18416
301.02778
300.57469
301.0005
300.69423
300.77214
300.69774
300.6734
300.66282
300.65696
300.57655
300.57454
300.56987
300.56871
300.56479
300.55551
300.5464
300.51504
300.44057
300.54012
300.12335
301.05892
300.42828
301.07822
300.72384
300.66991
300.63769
300.62557
300.62351
300.61694
300.54148
300.55847
300.55318
300.55201
300.55341
300.54679
300.53995
300.52724
300.35671
300.60485
300.68652
300.58287
300.70358
300.61812
300.65582
300.51838
300.57205
300.58363
300.59903
300.58953
300.51606
300.52501
300.53299
300.53023
300.52043
300.50853
300.47767
300.48569
300.31891
300.63606
300.30611
300.98509
300.76203
300.6047
300.58569
300.5844
300.57735
300.57898
300.5849
300.58812
300.5056
300.51328
300.50529
300.50313
300.48056
300.44822
300.38513
300.59903
300.44255
300.66078
300.6154
300.61377
300.74675
300.54617
300.60645
300.52504
300.51921
300.60825
300.59245
300.57743
300.49631
300.49967
300.50034
300.49962
300.49544
300.50741
300.51663
300.43307
300.36695
300.47593
299.92281
301.30565
300.74428
300.65015
300.63042
300.50445
300.53507
300.57363
300.57781
300.54599
300.47738
300.49705
300.49583
300.48959
300.46634
300.50172
300.4375
300.33562
300.00536
300.8512
300.21249
301.045
300.64862
300.70659
300.66375
300.49825
300.56833
300.53033
300.55346
300.52806
300.46293
300.50195
300.50549
300.50319
300.49178
300.46426
300.38927
300.57657
300.59817
300.53336
300.50386
300.673
300.62042
300.54736
300.55825
300.55836
300.56054
300.54578
300.54363
300.55755
300.48071
300.52775
300.52552
300.52478
300.52341
300.53238
300.54678
300.50241
300.57763
300.51235
300.66575
300.47966
300.51498
300.62373
300.5391
300.64516
300.56985
300.54364
300.53147
300.5653
300.48111
300.51643
300.52218
300.51979
300.51745
300.51992
300.51533
300.5109
300.46696
300.59463
300.66268
300.43245
300.51578
300.55487
300.54543
300.58525
300.56553
300.54859
300.54342
300.53685
300.45954
300.51192
300.51209
300.51121
300.51008
300.52612
300.53855
300.52808
300.57526
300.51366
300.63636
300.44344
300.51116
300.52417
300.52342
300.56587
300.55543
300.55065
300.54514
300.53705
300.4605
300.51405
300.51032
300.50499
300.49529
300.52324
300.46877
300.54863
300.55908
300.49338
300.46261
300.6301
300.55624
300.53894
300.53047
300.54408
300.53622
300.54966
300.53798
300.54785
300.46337
300.52982
300.52902
300.53136
300.53481
300.50884
300.50882
300.52303
300.47931
300.5706
300.49229
300.58425
300.54991
300.5409
300.5374
300.54093
300.5458
300.53222
300.53933
300.53304
300.45495
300.51627
300.51633
300.51383
300.49698
300.5473
300.52537
300.54376
300.55284
300.52364
300.53486
300.54653
300.53812
300.53961
300.53889
300.53688
300.53602
300.53249
300.54233
300.53068
300.45409
300.52954
300.52815
300.52555
300.52359
300.53873
300.52999
300.53881
300.51879
300.55614
300.53778
300.54366
300.53792
300.54088
300.53622
300.541
300.53869
300.53923
300.5426
300.53398
300.45633
300.53755
300.53734
300.53959
300.54325
300.53353
300.53662
300.5358
300.53649
300.54257
300.53682
300.5413
300.53932
300.54061
300.54145
300.54028
300.54364
300.54427
300.54057
300.53567
300.46085
300.54175
300.54073
300.54159
300.53903
300.54178
300.54032
300.54341
300.53938
300.54313
300.53823
300.54384
300.5411
300.54244
300.54141
300.54421
300.54416
300.54413
300.54467
300.53696
300.46201
300.54378
300.54378
300.54457
300.54375
300.54476
300.54377
300.54513
300.54298
300.54641
300.54143
300.54841
300.54155
300.54384
300.54231
300.54301
300.54216
300.54217
300.54159
300.54331
300.46676
301.00243
300.99958
300.99683
300.99282
300.99214
300.98604
300.98094
300.97957
300.97429
300.97527
300.97967
300.97021
300.96409
300.96809
300.96789
300.95523
300.92355
300.87684
300.89242
300.82479
300.94746
300.94781
300.94362
300.94438
300.94819
300.94305
300.94309
300.94054
300.9343
300.94104
300.95726
300.94888
300.94353
300.92498
300.94283
300.90804
300.85363
300.77069
300.9374
300.78851
300.89828
300.9034
300.90715
300.89861
300.90414
300.90659
300.94755
300.83172
300.93566
300.92988
300.98385
300.96018
300.99281
300.89449
300.99953
301.06541
300.73345
300.95556
300.09879
300.29572
300.86009
300.84872
300.85275
300.85313
300.8512
300.84183
300.83168
300.79307
301.00394
301.15362
301.14506
302.97325
299.44039
301.67024
299.94298
301.15262
299.74829
300.32931
300.18161
300.27801
300.80439
300.81005
300.80567
300.79701
300.77491
300.72416
300.77529
300.54843
300.73959
299.23557
302.60061
302.15291
300.01522
301.24849
300.37347
300.71386
300.41451
300.52008
300.48525
300.46938
300.75019
300.77545
300.76914
300.75576
300.73164
300.67698
300.65196
300.21045
301.6278
301.63713
299.82159
300.13465
301.61111
301.28592
300.60472
300.68067
300.54133
300.78312
300.66687
300.64121
300.74351
300.7392
300.73777
300.72932
300.7178
300.69511
300.73459
300.6404
301.00589
301.1056
300.447
300.80282
300.62711
300.82952
300.48395
300.21868
301.20072
301.03683
300.8862
300.78745
300.71349
300.7132
300.71086
300.70751
300.69531
300.67801
300.68118
300.64743
300.71184
300.65744
300.84977
300.73805
300.75475
300.7507
300.64745
300.54642
300.9007
300.81438
300.9253
300.81459
300.67464
300.68631
300.68262
300.67368
300.67383
300.65581
300.62848
300.55302
300.56207
300.0898
301.36219
300.82971
300.83498
300.72801
300.75506
300.70968
300.80472
300.77392
300.82584
300.72443
300.66246
300.6637
300.66364
300.67219
300.67139
300.68398
300.62939
300.62149
300.56075
300.42297
300.94304
300.74835
300.78019
300.67575
300.80836
300.67033
300.84732
300.79794
300.77403
300.67965
300.632
300.63401
300.63373
300.63339
300.61257
300.59869
300.56283
300.50431
300.66191
300.49147
300.68712
300.33345
301.17433
300.82468
300.78601
300.71582
300.74127
300.72218
300.71469
300.62891
300.60643
300.60678
300.59804
300.59039
300.58118
300.54939
300.50444
300.31578
300.65605
300.18334
301.25049
300.57267
301.0199
300.81847
300.70406
300.67234
300.70514
300.69216
300.67806
300.5971
300.58574
300.58498
300.58403
300.57458
300.56436
300.52339
300.47683
300.25244
300.66817
300.01877
301.46767
300.75129
300.82968
300.70806
300.69411
300.66923
300.64808
300.65997
300.63572
300.56012
300.56942
300.57186
300.56681
300.5612
300.54013
300.50324
300.46986
300.29017
300.74822
300.50737
300.91746
300.81547
300.54802
300.6625
300.59428
300.62595
300.62289
300.62805
300.61015
300.53766
300.54062
300.55335
300.54935
300.54413
300.53545
300.50416
300.47866
300.31268
300.59176
300.01114
301.29119
300.89429
300.53479
300.59957
300.61523
300.6164
300.62077
300.61484
300.5945
300.52181
300.52511
300.52566
300.52027
300.49744
300.48179
300.29434
300.59385
300.31071
300.62877
300.08571
301.15968
300.42539
301.03495
300.7694
300.58662
300.592
300.6018
300.60271
300.58444
300.50952
300.5025
300.50259
300.49315
300.45575
300.41621
300.24182
300.69186
300.37999
300.54283
299.8456
301.44414
300.65762
300.82225
300.70973
300.57205
300.55776
300.61214
300.59685
300.57676
300.49753
300.4962
300.50366
300.49454
300.47233
300.45643
300.33317
300.60342
300.39923
300.45815
299.82123
301.45455
300.86735
300.64829
300.65468
300.5235
300.56104
300.56496
300.57517
300.54431
300.47472
300.49208
300.50144
300.49262
300.46973
300.45217
300.34982
300.47838
300.14075
300.7525
300.03217
301.26069
300.87999
300.46481
300.53196
300.56911
300.54099
300.57711
300.55818
300.58016
300.48832
300.51197
300.5089
300.50642
300.49115
300.50064
300.46664
300.47405
300.33228
300.67643
300.71293
300.5213
300.55003
300.64333
300.57545
300.5348
300.52368
300.56621
300.5565
300.56484
300.48106
300.52078
300.52629
300.52718
300.5207
300.52037
300.51003
300.50716
300.44843
300.56202
300.41002
300.68035
300.62622
300.51323
300.5716
300.45905
300.5479
300.5171
300.53868
300.52009
300.44363
300.52172
300.52518
300.52517
300.52162
300.54173
300.57019
300.51028
300.62646
300.46115
300.63587
300.41985
300.56436
300.48071
300.53192
300.50329
300.55
300.5144
300.52477
300.51619
300.44507
300.50899
300.50754
300.50482
300.48621
300.50651
300.44996
300.56717
300.47441
300.58398
300.40918
300.67639
300.57023
300.53104
300.53188
300.54149
300.54963
300.53609
300.54226
300.52303
300.44868
300.51821
300.51704
300.51607
300.51475
300.4916
300.46331
300.47243
300.26052
300.78008
300.5286
300.60032
300.55866
300.54523
300.54397
300.5394
300.54092
300.54309
300.54413
300.53435
300.45854
300.53095
300.53157
300.53385
300.53754
300.52238
300.54353
300.50726
300.56209
300.50194
300.54551
300.52703
300.53959
300.5413
300.5417
300.53487
300.52901
300.54729
300.53834
300.54805
300.46792
300.52245
300.52474
300.52416
300.51998
300.52469
300.50733
300.51717
300.4394
300.63472
300.55613
300.54743
300.54316
300.54056
300.53503
300.53228
300.52813
300.54258
300.54239
300.54593
300.46631
300.5325
300.53224
300.53244
300.5315
300.52846
300.52988
300.54478
300.55056
300.5291
300.53639
300.54397
300.54035
300.54203
300.53977
300.54017
300.53674
300.54194
300.54313
300.5427
300.46443
300.53377
300.53475
300.53504
300.52963
300.54217
300.53447
300.54737
300.54092
300.54024
300.53644
300.54418
300.53983
300.54323
300.54116
300.54457
300.5443
300.54485
300.53991
300.54051
300.4624
300.54113
300.54066
300.54175
300.54133
300.54286
300.54154
300.54429
300.54146
300.54508
300.54136
300.54439
300.54337
300.54468
300.54373
300.5447
300.54359
300.54414
300.54289
300.54195
300.46474
300.54474
300.54479
300.54406
300.54665
300.54296
300.54146
300.54706
300.54255
300.54594
300.54143
300.5474
300.54256
300.54487
300.54446
300.5424
300.53919
300.53762
300.54434
300.54295
300.4704
300.99997
300.99716
300.98911
300.98526
300.98066
300.9886
300.98172
300.97626
300.98457
300.97641
300.97465
300.9765
300.97222
300.97077
300.96246
300.96709
300.97618
300.98695
300.88685
300.81861
300.95359
300.95841
300.95838
300.95809
300.96672
300.92452
300.94319
300.94723
300.9265
300.92548
300.95138
300.9451
300.95475
300.94565
300.89577
300.88964
300.90212
300.92146
300.84579
300.77073
300.90527
300.90315
300.90371
300.91445
300.92208
300.89549
300.89801
300.90515
300.90275
300.93381
300.97327
301.06768
300.93943
301.28774
300.46508
300.74936
300.6518
300.75684
300.74722
300.69978
300.77316
300.85616
300.83932
300.88446
300.86576
300.82395
300.83392
300.72937
301.01661
300.96932
300.99267
301.39734
300.6005
300.99692
300.68539
300.62814
300.49843
300.27403
301.08308
300.95532
300.80578
300.80815
300.81053
300.81052
300.80745
300.79492
300.80586
300.76577
300.78903
300.43034
300.98068
299.0669
303.4446
302.36666
300.02216
300.82457
299.99534
300.31649
300.53038
300.53531
300.76399
300.7685
300.75652
300.74516
300.73411
300.68769
300.8266
300.79929
301.1898
301.89226
299.76852
301.06684
300.5306
301.59455
299.97484
300.62937
300.33635
300.55866
300.426
300.46082
300.72801
300.73035
300.72916
300.71422
300.6941
300.64096
300.74212
300.60551
300.99005
300.75182
300.79965
300.37192
301.36316
301.07669
300.60396
300.69026
300.64667
300.70384
300.61543
300.61058
300.70572
300.70412
300.70062
300.69498
300.67197
300.63099
300.63074
300.46928
300.93699
300.87689
300.72473
301.02737
300.51575
300.71247
300.68453
300.70853
300.72115
300.72393
300.77164
300.6921
300.68084
300.67816
300.67187
300.66722
300.65126
300.61922
300.57685
300.38604
300.4674
299.08336
302.40182
301.07709
300.83487
300.74185
300.74291
300.67153
300.802
300.7368
300.85065
300.74197
300.65728
300.65749
300.65776
300.65268
300.6436
300.62021
300.62088
300.53083
300.55463
300.12707
301.35484
300.8507
300.85108
300.73878
300.73689
300.71175
300.75094
300.73703
300.74314
300.65282
300.62969
300.62978
300.63045
300.62558
300.62095
300.60741
300.60019
300.56177
300.50123
300.16537
301.23878
300.92221
300.66778
300.72982
300.6811
300.67763
300.69107
300.68939
300.69379
300.61001
300.60488
300.60285
300.59492
300.58644
300.58826
300.55305
300.58623
300.51739
300.45833
300.03298
301.33817
300.75667
300.80818
300.71011
300.6953
300.65805
300.68994
300.66026
300.69269
300.59878
300.57792
300.5898
300.58326
300.58086
300.57255
300.5339
300.54754
300.42131
300.4675
299.8581
301.46645
300.86582
300.75627
300.67172
300.71145
300.68674
300.67036
300.66892
300.64961
300.56502
300.56728
300.56721
300.56771
300.55739
300.54736
300.52132
300.50896
300.39039
300.48766
299.82973
301.4315
300.4319
301.21416
300.78195
300.75599
300.69673
300.67406
300.65767
300.62809
300.54742
300.5492
300.55306
300.54993
300.54963
300.53477
300.51469
300.46313
300.30312
300.6325
300.26776
300.99529
300.45777
301.01222
300.6195
300.82049
300.63856
300.73413
300.64702
300.66822
300.56936
300.54487
300.54711
300.54678
300.54177
300.52985
300.512
300.41914
300.23609
300.58486
299.95133
301.28036
300.65962
300.80141
300.68914
300.67489
300.6256
300.63858
300.61069
300.62894
300.54373
300.51781
300.51802
300.51196
300.49211
300.4922
300.44916
300.56256
300.48828
300.41652
300.10689
301.03513
300.19366
301.23563
300.79279
300.68184
300.62076
300.62268
300.60435
300.59712
300.51406
300.50748
300.51155
300.50529
300.4881
300.50382
300.47591
300.50598
300.41675
300.49463
300.08284
301.05364
300.43658
301.00414
300.69529
300.70148
300.61016
300.59688
300.57954
300.58439
300.50447
300.49597
300.50036
300.49163
300.46135
300.42487
300.30835
300.70335
300.61185
300.52006
300.62162
300.53937
300.48018
300.74358
300.54337
300.66583
300.57402
300.60183
300.57319
300.59209
300.50783
300.51368
300.51667
300.51456
300.4881
300.48985
300.4224
300.58643
300.47785
300.62513
300.51463
300.64347
300.6531
300.42462
300.52611
300.53975
300.53682
300.55291
300.5514
300.5511
300.47579
300.53027
300.53227
300.53752
300.54109
300.52948
300.55889
300.50682
300.60543
300.47017
300.54126
300.5282
300.54511
300.50864
300.56247
300.49253
300.52229
300.51944
300.52378
300.53939
300.46485
300.52219
300.52377
300.52233
300.51795
300.51077
300.48339
300.4943
300.34851
300.68578
300.44547
300.67578
300.5641
300.52722
300.52996
300.53682
300.53459
300.53512
300.53408
300.53129
300.45678
300.51637
300.51526
300.51237
300.49946
300.50743
300.48269
300.5424
300.50482
300.58525
300.59965
300.48977
300.53262
300.54919
300.54474
300.54192
300.55487
300.53967
300.54534
300.53615
300.45617
300.51725
300.51559
300.51632
300.5074
300.52239
300.51392
300.52816
300.5212
300.54288
300.48794
300.60287
300.55541
300.54582
300.54393
300.543
300.54513
300.53937
300.54417
300.53908
300.46069
300.51791
300.51858
300.52375
300.51165
300.52338
300.48059
300.55464
300.49743
300.58063
300.51764
300.57726
300.54813
300.54162
300.53787
300.53826
300.53312
300.55162
300.54942
300.54505
300.46636
300.5269
300.52553
300.53014
300.52719
300.52825
300.51828
300.52055
300.48508
300.59689
300.54991
300.55208
300.54511
300.54289
300.53748
300.53672
300.53358
300.54543
300.54294
300.5421
300.46638
300.53848
300.53882
300.53822
300.5392
300.53642
300.54059
300.5426
300.55893
300.53026
300.53727
300.5449
300.5423
300.54494
300.54296
300.5441
300.54475
300.54745
300.54673
300.54119
300.46528
300.5405
300.54065
300.54038
300.53926
300.54114
300.539
300.54843
300.54388
300.54453
300.5411
300.54884
300.54327
300.54642
300.5466
300.5475
300.5472
300.54718
300.54673
300.54381
300.46585
300.54549
300.54474
300.54603
300.5439
300.54516
300.54384
300.54725
300.54392
300.54764
300.54324
300.54826
300.54467
300.54674
300.54641
300.54766
300.54738
300.548
300.54774
300.54604
300.46765
300.54796
300.54799
300.54844
300.54754
300.54962
300.54809
300.54899
300.54648
300.54847
300.54472
300.55002
300.54604
300.5498
300.54831
300.54913
300.54939
300.55065
300.55358
300.54549
300.47
301.00119
300.98992
300.98119
300.98198
300.98573
300.98398
300.97948
300.98214
300.97218
300.97332
300.97069
300.96705
300.96987
300.96491
300.96146
300.96284
300.97125
300.97108
300.96508
300.88806
300.95201
300.95679
300.94913
300.94601
300.94931
300.93683
300.94839
300.93007
300.9305
300.91747
300.95788
300.93678
300.92896
300.91894
300.89783
300.87098
300.94496
300.95923
300.91201
300.84449
300.90461
300.90755
300.90537
300.91109
300.91439
300.92888
300.97467
300.77109
300.88847
300.85686
300.97219
300.94075
300.93426
300.92196
300.83134
300.7325
300.74564
300.57582
301.16693
301.02751
300.84859
300.86283
300.8589
300.85943
300.8586
300.84237
300.85532
300.80212
300.90577
300.80276
301.06082
301.29722
300.53397
301.23442
300.85084
301.74703
299.28307
300.52748
300.32659
300.40393
300.80853
300.81343
300.81108
300.80837
300.80675
300.79562
300.79428
300.71496
301.33602
302.16393
299.41244
300.73464
300.60441
300.63974
301.36949
301.36101
300.32547
300.65181
300.34526
300.42157
300.77319
300.76932
300.76998
300.76684
300.75726
300.73905
300.73199
300.57557
301.15067
301.07884
300.38463
299.87191
301.49189
300.49203
301.51986
300.98006
300.91602
300.75483
300.94298
300.76532
300.73351
300.73643
300.73787
300.73283
300.72887
300.71086
300.71364
300.6483
301.03446
301.33619
300.3124
301.04211
300.29355
300.59474
300.77807
300.73916
300.91453
300.88259
300.75435
300.68025
300.69336
300.70038
300.69624
300.67513
300.64531
300.58418
300.73293
300.57802
300.59724
299.86035
301.61679
300.81714
300.93657
300.68903
300.89964
300.78633
300.81008
300.78712
300.83615
300.72853
300.6714
300.66919
300.65902
300.64688
300.61891
300.54915
300.71623
300.54761
300.5739
300.05636
301.31352
300.37878
301.42955
300.92676
300.86044
300.78653
300.78
300.76548
300.80731
300.70023
300.64792
300.65069
300.64882
300.63917
300.62129
300.59135
300.66233
300.55746
300.55794
300.1522
301.27519
300.74164
300.99991
300.81438
300.79212
300.73165
300.73264
300.7394
300.73071
300.64935
300.601
300.61708
300.5961
300.56762
300.67396
300.62265
300.59159
300.47567
300.63853
300.35418
301.01693
300.60616
301.0112
300.88703
300.62598
300.66263
300.67739
300.68196
300.65991
300.59603
300.58618
300.59505
300.58108
300.56206
300.60816
300.52997
300.5573
300.37582
300.68129
300.22946
301.11224
300.77172
300.78278
300.62285
300.78398
300.67571
300.69893
300.68415
300.648
300.57745
300.59233
300.58967
300.58633
300.58476
300.59202
300.57557
300.59407
300.59244
300.52166
300.48818
300.81871
300.82377
300.60885
300.65604
300.64244
300.65873
300.6554
300.65958
300.63437
300.55055
300.56555
300.56724
300.56294
300.54625
300.54926
300.45161
300.64511
300.49656
300.51235
300.23871
301.00825
300.76136
300.67069
300.67481
300.63283
300.64607
300.63422
300.63498
300.61479
300.53982
300.55652
300.55803
300.55378
300.54796
300.53983
300.50887
300.54195
300.46404
300.50674
300.11985
301.15972
300.75733
300.6402
300.60792
300.6624
300.65282
300.60387
300.61022
300.59934
300.52398
300.54633
300.54957
300.55206
300.54532
300.53739
300.52256
300.50618
300.46249
300.66702
300.74554
300.52808
300.74353
300.473
300.61671
300.55721
300.59477
300.55782
300.57559
300.57438
300.4961
300.5202
300.52708
300.52361
300.50634
300.51788
300.48255
300.59007
300.57036
300.50001
300.40419
300.73713
300.42118
300.90832
300.78414
300.51227
300.57197
300.52212
300.54891
300.55027
300.47677
300.50692
300.50282
300.49412
300.46644
300.46875
300.3374
300.58376
300.28816
300.81297
300.59784
300.6231
300.64472
300.58937
300.61886
300.54369
300.57368
300.52166
300.5447
300.54927
300.4744
300.51327
300.51442
300.50801
300.4953
300.48882
300.43734
300.47363
300.08381
300.87662
300.24971
301.04743
300.79276
300.45337
300.54359
300.51543
300.52235
300.55802
300.55825
300.55701
300.47571
300.52607
300.53429
300.53844
300.54818
300.5356
300.5699
300.53925
300.68981
300.42401
300.66683
300.47885
300.68835
300.42078
300.59548
300.40434
300.49223
300.51568
300.53824
300.5262
300.45267
300.52959
300.52243
300.51743
300.50225
300.52023
300.48034
300.48194
300.32395
300.83061
300.88249
300.2751
300.50353
300.50401
300.53885
300.50095
300.52475
300.51761
300.53155
300.52429
300.45795
300.52628
300.5247
300.52767
300.52366
300.53365
300.53719
300.50489
300.48879
300.54834
300.45786
300.64871
300.55805
300.53165
300.51502
300.56225
300.54991
300.55098
300.54912
300.54381
300.46602
300.51373
300.51315
300.5129
300.49719
300.53807
300.52026
300.52966
300.47911
300.57813
300.4704
300.63026
300.56107
300.54638
300.53026
300.57208
300.55843
300.56258
300.55639
300.55395
300.46969
300.51905
300.51783
300.51603
300.50901
300.50871
300.45037
300.64059
300.63966
300.47362
300.53867
300.54026
300.54589
300.54391
300.53852
300.55315
300.54414
300.56164
300.55636
300.55055
300.46999
300.5158
300.51286
300.53653
300.52863
300.53519
300.52523
300.5293
300.499
300.57677
300.5231
300.57504
300.55205
300.54789
300.54107
300.54907
300.54893
300.5476
300.54987
300.54689
300.47028
300.5321
300.5307
300.53663
300.53291
300.53237
300.52216
300.54242
300.50631
300.58448
300.54802
300.55399
300.5505
300.54724
300.54615
300.54361
300.54238
300.5468
300.54669
300.54617
300.4717
300.54136
300.54147
300.54273
300.54012
300.54237
300.53662
300.55629
300.5573
300.54041
300.5434
300.5504
300.54638
300.54636
300.54478
300.54649
300.54796
300.55147
300.54951
300.55002
300.47232
300.54587
300.54464
300.54541
300.54348
300.55149
300.5475