/*--------------------------------*- C++ -*----------------------------------*\
| =========                 |                                                 |
| \\      /  F ield         | OpenFOAM: The Open Source CFD Toolbox           |
|  \\    /   O peration     | Version:  1.7.x                                 |
|   \\  /    A nd           | Web:      www.OpenFOAM.com                      |
|    \\/     M anipulation  |                                                 |
\*---------------------------------------------------------------------------*/
FoamFile
{
    version     2.0;
    format      ascii;
    class       scalarField;
    location    "0.0015/lagrangian/reactingCloud1";
    object      cp;
}
// * * * * * * * * * * * * * * * * * * * * * * * * * * * * * * * * * * * * * //


25
(
4183.7928
4183.7936
4183.7944
4183.7952
4183.7959
4183.7938
4183.7942
4183.7949
4183.7962
4183.7963
4183.7949
4183.7951
4183.7959
4183.7965
4183.7978
4183.7958
4183.7965
4183.7967
4183.7975
4183.7988
4183.7963
4183.7971
4183.7978
4183.7985
4183.7997
)


// ************************************************************************* //
