/*--------------------------------*- C++ -*----------------------------------*\
| =========                 |                                                 |
| \\      /  F ield         | OpenFOAM: The Open Source CFD Toolbox           |
|  \\    /   O peration     | Version:  1.7.x                                 |
|   \\  /    A nd           | Web:      www.OpenFOAM.com                      |
|    \\/     M anipulation  |                                                 |
\*---------------------------------------------------------------------------*/
FoamFile
{
    version     2.0;
    format      ascii;
    class       scalarField;
    location    "0.0015/lagrangian/reactingCloud1";
    object      d;
}
// * * * * * * * * * * * * * * * * * * * * * * * * * * * * * * * * * * * * * //


25
(
9.9940625e-05
9.9940572e-05
9.9940522e-05
9.9940464e-05
9.9940418e-05
9.9940559e-05
9.9940533e-05
9.9940482e-05
9.9940399e-05
9.9940388e-05
9.9940488e-05
9.9940469e-05
9.9940419e-05
9.9940376e-05
9.9940286e-05
9.9940423e-05
9.9940376e-05
9.9940361e-05
9.9940308e-05
9.9940219e-05
9.9940392e-05
9.9940335e-05
9.9940292e-05
9.9940244e-05
9.994016e-05
)


// ************************************************************************* //
