/*--------------------------------*- C++ -*----------------------------------*\
| =========                 |                                                 |
| \\      /  F ield         | OpenFOAM: The Open Source CFD Toolbox           |
|  \\    /   O peration     | Version:  1.7.x                                 |
|   \\  /    A nd           | Web:      www.OpenFOAM.com                      |
|    \\/     M anipulation  |                                                 |
\*---------------------------------------------------------------------------*/
FoamFile
{
    version     2.0;
    format      ascii;
    class       Cloud<passiveParticle>;
    location    "0.0015";
    object      positions;
}
// * * * * * * * * * * * * * * * * * * * * * * * * * * * * * * * * * * * * * //

25
(
(0.0019972817 0.0019963979 6.8811485e-05) 165989
(0.0039972377 0.0019963882 6.9051189e-05) 166337
(0.0059972103 0.0019963904 6.9289739e-05) 166336
(0.0079971759 0.0019963757 6.9566906e-05) 166684
(0.0099971804 0.0019963959 6.9811327e-05) 166683
(0.0019972781 0.0039963515 6.9118276e-05) 166338
(0.0039972295 0.0039963355 6.9368537e-05) 166685
(0.0059972063 0.003996341 6.9611676e-05) 166685
(0.0079971834 0.0039963379 6.9883075e-05) 167032
(0.0099971895 0.0039963595 7.0131997e-05) 167380
(0.0019972645 0.005996303 6.9455776e-05) 166686
(0.0039972324 0.0059963073 6.9692202e-05) 167033
(0.0059972162 0.0059963182 6.9936518e-05) 167033
(0.0079972021 0.0059963243 7.0192142e-05) 167380
(0.0099972004 0.0059963338 7.0469468e-05) 167728
(0.0019972675 0.00799629 6.9788588e-05) 167034
(0.0039972394 0.0079962961 7.0020351e-05) 167382
(0.0059972217 0.0079963019 7.0272897e-05) 167729
(0.0079972164 0.0079963153 7.0527968e-05) 167729
(0.0099972149 0.0079963222 7.0816902e-05) 168076
(0.0019972716 0.0099962887 7.0123719e-05) 167730
(0.0039972378 0.0099962849 7.0376695e-05) 167730
(0.0059972323 0.0099963053 7.0618738e-05) 168077
(0.0079972404 0.0099963313 7.0868039e-05) 168077
(0.009997247 0.0099963473 7.1142853e-05) 168424
)


// ************************************************************************* //
