/*--------------------------------*- C++ -*----------------------------------*\
| =========                 |                                                 |
| \\      /  F ield         | OpenFOAM: The Open Source CFD Toolbox           |
|  \\    /   O peration     | Version:  1.7.x                                 |
|   \\  /    A nd           | Web:      www.OpenFOAM.com                      |
|    \\/     M anipulation  |                                                 |
\*---------------------------------------------------------------------------*/
FoamFile
{
    version     2.0;
    format      ascii;
    class       scalarField;
    location    "0.0015/lagrangian/reactingCloud1";
    object      T;
}
// * * * * * * * * * * * * * * * * * * * * * * * * * * * * * * * * * * * * * //


25
(
298.98149
298.98058
298.97971
298.97871
298.97793
298.98036
298.9799
298.97904
298.97761
298.97741
298.97914
298.97881
298.97795
298.9772
298.97566
298.97802
298.97722
298.97694
298.97604
298.97452
298.97749
298.97652
298.97576
298.97494
298.97351
)


// ************************************************************************* //
