/*--------------------------------*- C++ -*----------------------------------*\
| =========                 |                                                 |
| \\      /  F ield         | OpenFOAM: The Open Source CFD Toolbox           |
|  \\    /   O peration     | Version:  1.7.x                                 |
|   \\  /    A nd           | Web:      www.OpenFOAM.com                      |
|    \\/     M anipulation  |                                                 |
\*---------------------------------------------------------------------------*/
FoamFile
{
    version     2.0;
    format      ascii;
    class       vectorField;
    location    "0.0015/lagrangian/reactingCloud1";
    object      U;
}
// * * * * * * * * * * * * * * * * * * * * * * * * * * * * * * * * * * * * * //


25
(
(-0.0022949108 -0.0038291518 0.089644356)
(-0.0024352038 -0.003859609 0.089856358)
(-0.002553814 -0.00387534 0.090092906)
(-0.0026826113 -0.0039097826 0.090358765)
(-0.0027690273 -0.0039011561 0.090633974)
(-0.0023193073 -0.003986914 0.089985794)
(-0.0024599957 -0.0040143789 0.090171252)
(-0.0025730098 -0.0040219312 0.090413537)
(-0.0026909011 -0.0040471575 0.090699242)
(-0.0027783288 -0.0040397733 0.090968341)
(-0.0023503088 -0.0041383885 0.090349943)
(-0.0024731854 -0.0041414002 0.090546607)
(-0.0025819515 -0.004148617 0.090796744)
(-0.0026883012 -0.004163401 0.091042615)
(-0.0027774227 -0.0041658988 0.091335126)
(-0.0023643223 -0.0042405774 0.090751375)
(-0.002486932 -0.0042518992 0.090942566)
(-0.0025959492 -0.004264473 0.091173689)
(-0.0026846902 -0.0042620508 0.091422479)
(-0.002768969 -0.0042686977 0.091721742)
(-0.0023776027 -0.0043317337 0.09114437)
(-0.0025042999 -0.004348882 0.091341116)
(-0.0025936398 -0.0043368596 0.091579027)
(-0.0026688344 -0.0043231121 0.091846834)
(-0.0027528373 -0.0043262571 0.092119987)
)


// ************************************************************************* //
