/*--------------------------------*- C++ -*----------------------------------*\
| =========                 |                                                 |
| \\      /  F ield         | OpenFOAM: The Open Source CFD Toolbox           |
|  \\    /   O peration     | Version:  2.1.0                                 |
|   \\  /    A nd           | Web:      www.OpenFOAM.org                      |
|    \\/     M anipulation  |                                                 |
\*---------------------------------------------------------------------------*/
FoamFile
{
    version     2.0;
    format      ascii;
    class       volScalarField;
    location    "10000";
    object      alphat;
}
// * * * * * * * * * * * * * * * * * * * * * * * * * * * * * * * * * * * * * //

dimensions      [1 -1 -1 0 0 0 0];

internalField   nonuniform List<scalar> 
15000
(
3.8591e-05
6.79967e-05
2.21064e-05
2.88675e-06
4.31174e-07
2.41893e-07
1.55013e-07
1.83348e-07
1.86308e-07
1.97574e-07
2.05771e-07
2.14922e-07
2.21759e-07
2.26803e-07
2.38676e-07
2.52476e-07
2.64218e-07
2.71066e-07
2.85331e-07
2.95249e-07
3.02048e-07
3.09655e-07
3.25506e-07
3.24061e-07
3.16526e-07
3.14929e-07
3.10393e-07
3.09119e-07
3.03192e-07
2.96599e-07
2.84477e-07
2.76491e-07
2.65243e-07
2.5664e-07
2.45999e-07
2.36896e-07
2.27042e-07
2.17976e-07
2.08868e-07
2.00291e-07
1.93494e-07
1.84598e-07
1.83253e-07
1.56368e-07
2.14158e-07
3.26347e-07
4.32626e-06
2.24337e-05
6.82861e-05
3.85886e-05
4.85384e-05
7.86276e-05
2.74567e-05
8.60187e-06
2.67368e-07
2.15491e-07
1.52927e-07
1.83154e-07
2.00767e-07
2.16867e-07
2.22738e-07
2.46173e-07
2.64475e-07
2.63289e-07
2.14833e-07
2.15747e-07
2.49919e-07
2.59858e-07
2.47406e-07
2.58311e-07
2.67222e-07
2.61246e-07
2.59108e-07
2.61198e-07
2.71086e-07
2.78508e-07
2.82171e-07
2.78653e-07
2.75273e-07
2.6742e-07
2.6911e-07
2.65561e-07
2.64879e-07
2.58741e-07
2.55603e-07
2.50471e-07
2.45731e-07
2.39408e-07
2.35911e-07
2.38691e-07
2.47794e-07
2.38853e-07
2.30536e-07
1.76748e-07
3.03876e-07
1.37063e-06
8.80968e-06
2.75024e-05
7.87656e-05
4.85369e-05
5.3036e-05
9.69342e-05
3.51548e-05
1.01405e-05
2.3049e-06
2.57458e-07
1.56228e-07
3.92624e-07
2.73205e-07
2.81035e-07
2.82242e-07
2.58683e-07
2.27789e-07
2.61001e-07
3.22418e-07
3.20073e-07
3.03864e-07
2.97963e-07
3.19146e-07
3.1226e-07
3.01558e-07
3.19043e-07
3.19711e-07
2.95168e-07
3.02706e-07
3.17886e-07
3.17645e-07
3.12979e-07
3.14293e-07
3.18523e-07
3.13155e-07
3.11675e-07
3.05591e-07
3.05152e-07
3.00551e-07
2.97921e-07
2.94428e-07
2.92146e-07
2.86317e-07
2.69499e-07
2.46534e-07
2.2868e-07
2.89813e-07
1.43858e-07
1.57953e-07
1.10887e-06
9.99925e-06
3.52972e-05
9.71072e-05
5.30468e-05
5.23945e-05
0.000123741
4.44585e-05
1.3861e-05
2.62542e-06
1.64741e-07
1.01954e-07
2.74237e-07
2.34148e-07
3.11636e-07
3.01923e-07
3.39363e-07
3.56097e-07
3.53254e-07
2.7543e-07
2.73782e-07
3.36401e-07
3.49353e-07
3.26629e-07
3.47532e-07
3.54851e-07
3.42854e-07
3.46313e-07
3.39028e-07
3.41183e-07
3.52701e-07
3.57059e-07
3.56126e-07
3.54335e-07
3.41284e-07
3.44051e-07
3.40341e-07
3.41131e-07
3.33786e-07
3.31323e-07
3.25554e-07
3.20943e-07
3.13718e-07
3.10975e-07
3.16487e-07
3.55826e-07
2.67306e-07
3.88244e-07
1.10166e-07
3.34639e-07
4.77849e-06
1.40624e-05
4.45191e-05
0.000123782
5.24064e-05
5.08555e-05
0.000158494
5.93343e-05
1.67956e-05
5.71942e-06
4.79357e-07
9.60812e-08
2.94784e-07
2.12223e-07
3.30397e-07
2.82332e-07
2.72909e-07
2.39817e-07
2.70825e-07
3.50223e-07
3.49914e-07
3.31667e-07
3.21167e-07
3.50149e-07
3.42968e-07
3.26907e-07
3.51139e-07
3.5285e-07
3.21035e-07
3.2977e-07
3.50148e-07
3.50316e-07
3.44933e-07
3.46646e-07
3.51763e-07
3.44237e-07
3.42176e-07
3.3405e-07
3.32864e-07
3.26386e-07
3.22223e-07
3.16512e-07
3.12862e-07
3.06424e-07
2.73385e-07
2.7953e-07
1.87744e-07
2.44982e-07
8.9099e-08
3.03034e-07
4.18421e-06
1.67094e-05
5.94405e-05
0.000158537
5.08638e-05
4.96549e-05
0.000189161
8.08227e-05
2.23975e-05
5.11877e-06
5.54405e-07
8.73517e-08
1.86318e-07
1.73627e-07
3.69577e-07
2.89237e-07
3.69006e-07
3.69615e-07
3.72829e-07
2.91262e-07
2.80974e-07
3.49061e-07
3.65987e-07
3.41118e-07
3.63031e-07
3.71957e-07
3.59644e-07
3.62147e-07
3.55561e-07
3.57425e-07
3.69916e-07
3.75035e-07
3.73407e-07
3.71157e-07
3.56472e-07
3.59923e-07
3.55438e-07
3.56013e-07
3.47701e-07
3.44554e-07
3.38702e-07
3.3317e-07
3.22017e-07
3.33744e-07
2.96121e-07
4.44946e-07
1.87515e-07
2.14607e-07
9.79564e-08
8.97349e-07
6.69368e-06
2.25767e-05
8.0868e-05
0.000189113
4.96596e-05
4.89815e-05
0.000221018
0.000106961
2.93705e-05
7.78752e-06
1.6434e-06
1.15442e-07
1.99804e-07
1.6853e-07
3.96853e-07
2.69317e-07
3.15498e-07
2.53628e-07
2.88679e-07
3.8775e-07
3.90428e-07
3.69326e-07
3.51651e-07
3.90388e-07
3.81854e-07
3.58788e-07
3.91189e-07
3.9298e-07
3.52793e-07
3.62877e-07
3.89445e-07
3.89383e-07
3.82809e-07
3.85205e-07
3.91918e-07
3.81796e-07
3.79441e-07
3.68964e-07
3.68034e-07
3.59438e-07
3.53481e-07
3.50824e-07
3.32583e-07
3.56103e-07
2.60545e-07
3.21046e-07
1.56619e-07
1.83147e-07
1.03156e-07
1.22233e-06
6.53489e-06
2.92883e-05
0.000107031
0.000221004
4.89834e-05
4.87668e-05
0.000250171
0.00013978
3.99483e-05
8.19486e-06
2.33135e-06
1.29061e-07
1.71374e-07
1.5398e-07
3.91761e-07
2.63912e-07
4.32249e-07
3.78191e-07
4.17466e-07
3.16353e-07
2.96183e-07
3.73469e-07
3.97082e-07
3.6807e-07
3.91116e-07
4.02978e-07
3.89672e-07
3.90095e-07
3.83739e-07
3.85591e-07
4.00593e-07
4.07321e-07
4.04774e-07
4.02326e-07
3.84789e-07
3.8989e-07
3.84186e-07
3.84929e-07
3.74862e-07
3.72454e-07
3.61495e-07
3.65842e-07
3.30048e-07
3.86841e-07
2.70606e-07
4.77381e-07
1.62443e-07
1.91702e-07
1.51898e-07
2.77544e-06
9.22719e-06
4.01153e-05
0.000139814
0.000250119
4.8767e-05
4.88497e-05
0.000275028
0.00017441
5.42604e-05
1.17923e-05
3.11979e-06
2.23455e-07
2.19368e-07
1.62206e-07
3.95934e-07
2.52039e-07
3.5813e-07
2.59152e-07
3.05423e-07
4.03203e-07
4.20016e-07
3.96132e-07
3.72063e-07
4.18029e-07
4.09018e-07
3.8048e-07
4.18461e-07
4.20125e-07
3.75526e-07
3.85938e-07
4.16847e-07
4.16427e-07
4.09347e-07
4.11897e-07
4.19654e-07
4.07371e-07
4.05087e-07
3.93225e-07
3.91316e-07
3.84878e-07
3.6947e-07
3.85001e-07
3.31945e-07
4.0332e-07
2.44025e-07
3.2398e-07
1.52512e-07
1.98981e-07
1.93188e-07
2.68065e-06
1.08765e-05
5.41737e-05
0.000174447
0.000275012
4.88491e-05
4.90984e-05
0.000296518
0.000212956
7.25097e-05
1.43455e-05
3.20075e-06
2.91581e-07
2.05758e-07
1.61199e-07
3.86636e-07
2.50627e-07
4.7641e-07
3.6864e-07
4.65193e-07
3.34233e-07
3.0946e-07
3.87596e-07
4.21432e-07
3.89054e-07
4.10865e-07
4.26522e-07
4.12926e-07
4.10276e-07
4.0546e-07
4.07138e-07
4.23866e-07
4.32026e-07
4.28325e-07
4.25614e-07
4.06151e-07
4.12705e-07
4.056e-07
4.07566e-07
3.92878e-07
3.97577e-07
3.71342e-07
3.99611e-07
3.25136e-07
4.27996e-07
2.58195e-07
4.63022e-07
1.69662e-07
2.39568e-07
3.51409e-07
3.64447e-06
1.51134e-05
7.26664e-05
0.000212982
0.000296481
4.90975e-05
4.94267e-05
0.000314675
0.000251023
9.5656e-05
2.04392e-05
4.36004e-06
6.30391e-07
3.23153e-07
1.81528e-07
3.99504e-07
2.49534e-07
3.90997e-07
2.61298e-07
3.19307e-07
4.04821e-07
4.47624e-07
4.14378e-07
3.87899e-07
4.38018e-07
4.2979e-07
3.96462e-07
4.38876e-07
4.40252e-07
3.93339e-07
4.03521e-07
4.37754e-07
4.36319e-07
4.29349e-07
4.31777e-07
4.40448e-07
4.26292e-07
4.23377e-07
4.12617e-07
4.05432e-07
4.0831e-07
3.74968e-07
4.1603e-07
3.25407e-07
4.35699e-07
2.40725e-07
3.27441e-07
1.69614e-07
2.70959e-07
5.3996e-07
3.89283e-06
1.98838e-05
9.55667e-05
0.00025103
0.000314665
4.94256e-05
4.99262e-05
0.000330621
0.000288699
0.000122285
2.70866e-05
4.91193e-06
9.29613e-07
2.75539e-07
1.89204e-07
4.03201e-07
2.549e-07
4.93551e-07
3.60201e-07
5.08459e-07
3.46074e-07
3.21467e-07
3.93079e-07
4.42088e-07
4.04813e-07
4.24699e-07
4.44406e-07
4.31062e-07
4.249e-07
4.22273e-07
4.23856e-07
4.41605e-07
4.50926e-07
4.45977e-07
4.43424e-07
4.22093e-07
4.30602e-07
4.20463e-07
4.26713e-07
4.02913e-07
4.20477e-07
3.74328e-07
4.25289e-07
3.21469e-07
4.5216e-07
2.62637e-07
4.91493e-07
2.02577e-07
3.59189e-07
1.1343e-06
5.42771e-06
2.75921e-05
0.000122429
0.000288739
0.000330601
4.9925e-05
5.01795e-05
0.000344684
0.000328218
0.000152852
3.73187e-05
6.97245e-06
1.99075e-06
5.24955e-07
2.21997e-07
4.23169e-07
2.62601e-07
4.12444e-07
2.66838e-07
3.27826e-07
4.03264e-07
4.7558e-07
4.26779e-07
4.02623e-07
4.5296e-07
4.48039e-07
4.09264e-07
4.55951e-07
4.56881e-07
4.08637e-07
4.18369e-07
4.55171e-07
4.52842e-07
4.46108e-07
4.48308e-07
4.57431e-07
4.42683e-07
4.36929e-07
4.30734e-07
4.14137e-07
4.30283e-07
3.77564e-07
4.38342e-07
3.25601e-07
4.52017e-07
2.52208e-07
3.41539e-07
2.0323e-07
3.78017e-07
1.86988e-06
6.3623e-06
3.69415e-05
0.000152773
0.000328188
0.000344676
5.0179e-05
5.05309e-05
0.000357376
0.000367707
0.000187027
4.92028e-05
8.36916e-06
2.12722e-06
3.499e-07
2.29997e-07
4.27408e-07
2.74536e-07
4.97423e-07
3.64167e-07
5.44591e-07
3.58821e-07
3.33092e-07
3.96744e-07
4.64262e-07
4.19196e-07
4.37876e-07
4.60978e-07
4.48656e-07
4.38194e-07
4.38208e-07
4.39706e-07
4.57981e-07
4.68771e-07
4.62359e-07
4.60514e-07
4.36626e-07
4.48953e-07
4.33221e-07
4.47091e-07
4.11065e-07
4.43433e-07
3.78786e-07
4.44031e-07
3.28122e-07
4.65684e-07
2.84065e-07
5.32113e-07
2.5243e-07
4.92775e-07
2.24492e-06
8.80154e-06
4.95794e-05
0.000187143
0.000367705
0.000357371
5.05299e-05
5.09127e-05
0.000369202
0.000401445
0.000224749
6.5236e-05
1.21305e-05
2.58381e-06
7.2999e-07
2.74074e-07
4.40428e-07
2.86827e-07
4.28195e-07
2.77993e-07
3.33424e-07
4.02921e-07
5.00752e-07
4.36523e-07
4.16999e-07
4.64094e-07
4.65063e-07
4.19952e-07
4.70816e-07
4.70561e-07
4.22467e-07
4.31269e-07
4.70127e-07
4.66811e-07
4.60513e-07
4.62949e-07
4.71252e-07
4.57969e-07
4.47243e-07
4.48386e-07
4.21036e-07
4.49123e-07
3.82366e-07
4.52702e-07
3.35259e-07
4.60196e-07
2.73434e-07
3.53071e-07
2.43922e-07
4.93303e-07
2.3925e-06
1.13956e-05
6.49405e-05
0.000224668
0.000401442
0.000369186
5.09123e-05
5.12973e-05
0.0003798
0.000431965
0.000263601
8.37757e-05
1.48629e-05
2.9816e-06
4.64933e-07
2.73168e-07
4.33356e-07
3.00324e-07
4.88997e-07
3.74315e-07
5.62825e-07
3.71327e-07
3.41538e-07
3.97942e-07
4.81626e-07
4.29721e-07
4.46839e-07
4.72233e-07
4.62443e-07
4.4702e-07
4.50306e-07
4.51758e-07
4.69761e-07
4.81983e-07
4.73647e-07
4.73546e-07
4.46375e-07
4.64041e-07
4.40919e-07
4.6325e-07
4.16692e-07
4.58054e-07
3.83826e-07
4.55537e-07
3.40375e-07
4.65625e-07
3.13009e-07
5.37375e-07
3.09151e-07
6.47615e-07
3.08467e-06
1.54389e-05
8.40807e-05
0.000263718
0.000431969
0.000379811
5.12966e-05
5.16786e-05
0.000389754
0.000460896
0.000296051
0.000106327
2.17137e-05
3.85097e-06
1.04866e-06
3.24894e-07
4.37091e-07
3.15622e-07
4.35288e-07
2.92411e-07
3.36292e-07
4.04193e-07
5.18911e-07
4.44099e-07
4.28807e-07
4.71109e-07
4.7918e-07
4.27516e-07
4.82506e-07
4.80264e-07
4.33935e-07
4.41337e-07
4.81496e-07
4.77198e-07
4.71203e-07
4.74445e-07
4.80574e-07
4.70347e-07
4.53934e-07
4.61951e-07
4.26618e-07
4.60897e-07
3.88139e-07
4.61025e-07
3.49625e-07
4.56984e-07
2.98154e-07
3.54316e-07
2.81244e-07
7.22065e-07
3.51743e-06
2.04354e-05
0.000106079
0.000296068
0.000460865
0.00038972
5.1678e-05
5.20522e-05
0.000398863
0.000484165
0.000327011
0.000129778
2.60497e-05
4.57237e-06
7.9739e-07
3.09251e-07
4.26144e-07
3.25445e-07
4.75237e-07
3.88233e-07
5.6719e-07
3.84871e-07
3.47455e-07
3.99074e-07
4.94748e-07
4.38091e-07
4.52996e-07
4.79932e-07
4.73544e-07
4.53077e-07
4.59766e-07
4.61255e-07
4.78362e-07
4.9216e-07
4.81415e-07
4.83986e-07
4.53011e-07
4.76602e-07
4.46121e-07
4.75518e-07
4.2195e-07
4.66714e-07
3.90946e-07
4.60772e-07
3.5563e-07
4.5968e-07
3.42604e-07
5.17178e-07
3.58356e-07
1.07785e-06
4.75341e-06
2.71501e-05
0.00013003
0.000327022
0.000484193
0.000398897
5.20519e-05
5.242e-05
0.000407427
0.000504882
0.000356784
0.000156023
3.5948e-05
6.08172e-06
1.90412e-06
3.73634e-07
4.22789e-07
3.42053e-07
4.36038e-07
3.07705e-07
3.37672e-07
4.06308e-07
5.27996e-07
4.51025e-07
4.37382e-07
4.75064e-07
4.90061e-07
4.32609e-07
4.91056e-07
4.86404e-07
4.43247e-07
4.48864e-07
4.89592e-07
4.84488e-07
4.78589e-07
4.83018e-07
4.86192e-07
4.79557e-07
4.58155e-07
4.70998e-07
4.31388e-07
4.66444e-07
3.94813e-07
4.62766e-07
3.64804e-07
4.4902e-07
3.20262e-07
3.49394e-07
3.16429e-07
1.43027e-06
5.57009e-06
3.49969e-05
0.000155822
0.000356824
0.000504863
0.000407367
5.24191e-05
5.27744e-05
0.000415101
0.000523141
0.000385304
0.000182318
4.37353e-05
7.17726e-06
1.94046e-06
3.41901e-07
4.15135e-07
3.47707e-07
4.59882e-07
4.02392e-07
5.642e-07
3.9903e-07
3.51872e-07
4.00306e-07
5.03635e-07
4.4548e-07
4.5668e-07
4.85614e-07
4.82516e-07
4.57268e-07
4.67462e-07
4.69038e-07
4.84759e-07
5.00251e-07
4.86831e-07
4.92493e-07
4.57725e-07
4.86797e-07
4.50343e-07
4.83794e-07
4.27667e-07
4.70978e-07
3.98909e-07
4.61454e-07
3.71521e-07
4.50555e-07
3.7022e-07
4.92317e-07
4.02223e-07
1.97697e-06
7.68917e-06
4.46056e-05
0.000182532
0.000385288
0.00052315
0.000415171
5.27743e-05
5.31173e-05
0.000422338
0.000539748
0.000412495
0.000210722
5.60517e-05
9.78392e-06
2.19934e-06
4.21763e-07
4.12355e-07
3.64008e-07
4.34524e-07
3.23804e-07
3.3887e-07
4.0948e-07
5.32399e-07
4.58648e-07
4.44414e-07
4.78403e-07
4.99318e-07
4.36879e-07
4.98303e-07
4.91065e-07
4.51696e-07
4.55276e-07
4.96253e-07
4.90537e-07
4.84594e-07
4.90333e-07
4.90649e-07
4.86934e-07
4.62181e-07
4.77867e-07
4.36841e-07
4.6903e-07
4.02981e-07
4.61935e-07
3.80376e-07
4.41305e-07
3.3819e-07
3.46812e-07
3.52535e-07
2.13795e-06
8.97095e-06
5.53077e-05
0.000210566
0.000412546
0.000539769
0.000422287
5.31174e-05
5.34485e-05
0.000428881
0.000554873
0.000438245
0.000239218
6.71203e-05
1.13777e-05
2.43824e-06
3.89044e-07
4.08127e-07
3.64215e-07
4.47923e-07
4.13975e-07
5.57843e-07
4.13506e-07
3.55866e-07
4.01923e-07
5.09252e-07
4.52498e-07
4.58678e-07
4.90199e-07
4.89649e-07
4.60526e-07
4.73797e-07
4.75639e-07
4.89617e-07
5.06784e-07
4.90647e-07
4.99301e-07
4.61524e-07
4.94416e-07
4.54316e-07
4.88957e-07
4.33539e-07
4.72583e-07
4.06931e-07
4.59807e-07
3.85891e-07
4.42462e-07
3.90781e-07
4.74576e-07
4.63034e-07
2.47653e-06
1.22971e-05
6.78345e-05
0.000239416
0.00043821
0.00055484
0.000428878
5.34469e-05
5.37635e-05
0.000434871
0.000568657
0.000462234
0.00026922
8.21269e-05
1.53974e-05
2.88326e-06
5.08089e-07
4.0344e-07
3.80321e-07
4.31872e-07
3.38896e-07
3.39948e-07
4.11703e-07
5.32395e-07
4.65771e-07
4.49513e-07
4.80641e-07
5.06543e-07
4.40432e-07
5.03677e-07
4.94355e-07
4.59e-07
4.60605e-07
5.01369e-07
4.95129e-07
4.89167e-07
4.95942e-07
4.93953e-07
4.92015e-07
4.65736e-07
4.81846e-07
4.42221e-07
4.69134e-07
4.1054e-07
4.59116e-07
3.93425e-07
4.34367e-07
3.51448e-07
3.44346e-07
4.19268e-07
2.7806e-06
1.41583e-05
8.15018e-05
0.000269085
0.000462299
0.000568698
0.00043488
5.37642e-05
5.40686e-05
0.000440417
0.000581412
0.000485257
0.000291621
9.63079e-05
1.76093e-05
3.27782e-06
4.86852e-07
4.02124e-07
3.77449e-07
4.38856e-07
4.21805e-07
5.52104e-07
4.27403e-07
3.5945e-07
4.03853e-07
5.12628e-07
4.59274e-07
4.59214e-07
4.9439e-07
4.95695e-07
4.63399e-07
4.7951e-07
4.81877e-07
4.93845e-07
5.12659e-07
4.94049e-07
5.0526e-07
4.65419e-07
5.00677e-07
4.58796e-07
4.92662e-07
4.3997e-07
4.73343e-07
4.14703e-07
4.58297e-07
3.98625e-07
4.36084e-07
4.08019e-07
4.61139e-07
5.86813e-07
3.37461e-06
1.86964e-05
9.69246e-05
0.000291715
0.000485207
0.000581369
0.000440403
5.40669e-05
5.43579e-05
0.000445523
0.000593065
0.000506885
0.00031238
0.000113037
2.33656e-05
3.98902e-06
6.94032e-07
3.97902e-07
3.9444e-07
4.2906e-07
3.53611e-07
3.4194e-07
4.13389e-07
5.31366e-07
4.72972e-07
4.54226e-07
4.83284e-07
5.12461e-07
4.44267e-07
5.08323e-07
4.97532e-07
4.65954e-07
4.65652e-07
5.06096e-07
4.99406e-07
4.93621e-07
5.00995e-07
4.97466e-07
4.96291e-07
4.69924e-07
4.84932e-07
4.482e-07
4.69259e-07
4.18069e-07
4.56627e-07
4.04989e-07
4.29712e-07
3.62923e-07
3.44006e-07
5.62698e-07
3.75938e-06
2.19038e-05
0.000112479
0.000312337
0.000506969
0.000593117
0.000445531
5.43587e-05
5.46393e-05
0.000450315
0.000604005
0.000527658
0.000332393
0.000128659
2.61768e-05
4.55769e-06
7.05235e-07
4.00343e-07
3.87554e-07
4.3304e-07
4.26629e-07
5.46711e-07
4.40678e-07
3.63085e-07
4.0604e-07
5.14611e-07
4.6574e-07
4.59222e-07
4.98598e-07
5.00627e-07
4.66233e-07
4.84683e-07
4.87891e-07
4.97674e-07
5.17969e-07
4.97298e-07
5.10501e-07
4.69558e-07
5.05944e-07
4.6365e-07
4.95578e-07
4.46596e-07
4.73954e-07
4.21992e-07
4.57419e-07
4.10084e-07
4.31134e-07
4.2212e-07
4.54599e-07
8.57533e-07
4.72393e-06
2.74118e-05
0.000129212
0.000332466
0.000527592
0.000603952
0.000450299
5.46375e-05
5.49058e-05
0.000454743
0.000614036
0.000546975
0.000351985
0.000146425
3.3648e-05
5.59013e-06
1.11437e-06
3.96897e-07
4.04284e-07
4.2514e-07
3.67591e-07
3.44878e-07
4.13638e-07
5.2924e-07
4.7945e-07
4.58352e-07
4.85398e-07
5.17147e-07
4.47871e-07
5.11964e-07
5.00404e-07
4.72258e-07
4.70221e-07
5.10255e-07
5.0317e-07
4.97876e-07
5.05338e-07
5.01004e-07
4.99771e-07
4.7437e-07
4.8731e-07
4.54221e-07
4.69522e-07
4.25361e-07
4.5474e-07
4.13935e-07
4.27275e-07
3.72416e-07
3.46856e-07
8.89309e-07
5.22543e-06
3.20457e-05
0.00014593
0.000351979
0.000547081
0.000614101
0.00045475
5.49065e-05
5.51659e-05
0.00045894
0.000623607
0.000565655
0.000370919
0.000163021
3.6991e-05
6.35158e-06
1.19203e-06
4.04211e-07
3.95355e-07
4.28589e-07
4.29089e-07
5.41427e-07
4.52655e-07
3.66642e-07
4.07981e-07
5.15404e-07
4.71811e-07
4.58672e-07
5.02783e-07
5.04513e-07
4.68965e-07
4.89474e-07
4.93865e-07
5.01314e-07
5.22864e-07
5.00618e-07
5.15295e-07
4.74096e-07
5.1067e-07
4.68899e-07
4.98354e-07
4.53259e-07
4.75122e-07
4.29192e-07
4.57008e-07
4.19489e-07
4.29185e-07
4.34746e-07
4.54487e-07
1.44939e-06
6.61428e-06
3.84254e-05
0.000163523
0.000370975
0.000565579
0.000623542
0.000458921
5.51639e-05
5.5412e-05
0.000462824
0.000632388
0.000582958
0.000389295
0.000181376
4.56338e-05
7.7618e-06
2.0298e-06
4.03599e-07
4.09433e-07
4.21777e-07
3.8018e-07
3.48422e-07
4.12775e-07
5.26159e-07
4.8493e-07
4.61915e-07
4.86904e-07
5.20701e-07
4.51148e-07
5.14785e-07
5.03165e-07
4.77925e-07
4.74377e-07
5.14074e-07
5.06715e-07
5.02187e-07
5.09347e-07
5.04841e-07
5.03015e-07
4.79208e-07
4.89686e-07
4.60336e-07
4.70283e-07
4.32733e-07
4.53299e-07
4.21627e-07
4.26535e-07
3.78018e-07
3.57093e-07
1.62904e-06
7.24915e-06
4.42416e-05
0.000180962
0.000389324
0.000583088
0.000632468
0.000462827
5.54123e-05
5.56531e-05
0.000466538
0.000640906
0.000599897
0.000407153
0.000198413
5.01783e-05
8.65073e-06
2.21664e-06
4.11514e-07
4.00524e-07
4.25791e-07
4.28109e-07
5.36732e-07
4.62765e-07
3.69743e-07
4.09402e-07
5.1506e-07
4.77204e-07
4.57455e-07
5.06914e-07
5.07386e-07
4.71468e-07
4.94103e-07
5.00029e-07
5.05023e-07
5.27605e-07
5.04183e-07
5.20112e-07
4.79314e-07
5.1551e-07
4.74802e-07
5.01662e-07
4.6034e-07
4.77266e-07
4.36739e-07
4.57686e-07
4.27464e-07
4.30491e-07
4.44348e-07
4.60945e-07
2.22149e-06
9.10291e-06
5.14745e-05
0.000198882
0.000407203
0.000599814
0.00064083
0.000466511
5.56508e-05
5.58812e-05
0.000469985
0.000648694
0.000615512
0.000424371
0.000216808
5.94304e-05
1.05524e-05
2.38399e-06
4.162e-07
4.14595e-07
4.18711e-07
3.90764e-07
3.52682e-07
4.11025e-07
5.22711e-07
4.89564e-07
4.64855e-07
4.87862e-07
5.23543e-07
4.53953e-07
5.16954e-07
5.06044e-07
4.82926e-07
4.78161e-07
5.17845e-07
5.10549e-07
5.07231e-07
5.13774e-07
5.09696e-07
5.07139e-07
4.85379e-07
4.93461e-07
4.67726e-07
4.73175e-07
4.40919e-07
4.54921e-07
4.3057e-07
4.27524e-07
3.86013e-07
3.73785e-07
2.33654e-06
9.88476e-06
5.8304e-05
0.000216499
0.00042445
0.000615674
0.000648787
0.000469984
5.58809e-05
5.61049e-05
0.000473321
0.000656379
0.000630691
0.000441168
0.000234082
6.52081e-05
1.15812e-05
2.53486e-06
4.29444e-07
4.0431e-07
4.23011e-07
4.25348e-07
5.30912e-07
4.70234e-07
3.72508e-07
4.09954e-07
5.13476e-07
4.81439e-07
4.55353e-07
5.10746e-07
5.09081e-07
4.73403e-07
4.98732e-07
5.06595e-07
5.08985e-07
5.32369e-07
5.08248e-07
5.25518e-07
4.85656e-07
5.2125e-07
4.81847e-07
5.06446e-07
4.68431e-07
4.81428e-07
4.45314e-07
4.60291e-07
4.36633e-07
4.33073e-07
4.53304e-07
4.85608e-07
2.56331e-06
1.22343e-05
6.63087e-05
0.000234559
0.000441216
0.000630603
0.000656293
0.000473278
5.61021e-05
5.63177e-05
0.000476415
0.000663353
0.000644294
0.000457086
0.000252721
7.49469e-05
1.40042e-05
2.80784e-06
4.41271e-07
4.15376e-07
4.13942e-07
3.98321e-07
3.55635e-07
4.07104e-07
5.16439e-07
4.91333e-07
4.6567e-07
4.86508e-07
5.24094e-07
4.54948e-07
5.17211e-07
5.08076e-07
4.86165e-07
4.80605e-07
5.20666e-07
5.14089e-07
5.12589e-07
5.18122e-07
5.14979e-07
5.11798e-07
4.92403e-07
4.98297e-07
4.75871e-07
4.77533e-07
4.4968e-07
4.58012e-07
4.39773e-07
4.30466e-07
3.9339e-07
4.0483e-07
2.7383e-06
1.31764e-05
7.40267e-05
0.000252552
0.000457244
0.000644489
0.000663457
0.000476406
5.6316e-05
5.65247e-05
0.000479443
0.000670327
0.00065771
0.000472703
0.000270104
8.17901e-05
1.51927e-05
3.01172e-06
4.63313e-07
4.03422e-07
4.18818e-07
4.19851e-07
5.23271e-07
4.7395e-07
3.73723e-07
4.0846e-07
5.09683e-07
4.8357e-07
4.51374e-07
5.13687e-07
5.08917e-07
4.73899e-07
5.03471e-07
5.13745e-07
5.13305e-07
5.37329e-07
5.13145e-07
5.32215e-07
4.93744e-07
5.28898e-07
4.90866e-07
5.13836e-07
4.78661e-07
4.88542e-07
4.55963e-07
4.66176e-07
4.47409e-07
4.39629e-07
4.62437e-07
5.35229e-07
3.06451e-06
1.60454e-05
8.27842e-05
0.000270645
0.000472775
0.00065763
0.000670234
0.000479384
5.65217e-05
5.67259e-05
0.00048226
0.000676598
0.000669633
0.000487336
0.000288559
9.20111e-05
1.81473e-05
3.38042e-06
4.85711e-07
4.12175e-07
4.07597e-07
4.02318e-07
3.56166e-07
4.00706e-07
5.06663e-07
4.89675e-07
4.6352e-07
4.82087e-07
5.2216e-07
4.53506e-07
5.15089e-07
5.09405e-07
4.87076e-07
4.81348e-07
5.22623e-07
5.17944e-07
5.19057e-07
5.23388e-07
5.2178e-07
5.18553e-07
5.01921e-07
5.06129e-07
4.86806e-07
4.85532e-07
4.61212e-07
4.65327e-07
4.51268e-07
4.38065e-07
4.02841e-07
4.59818e-07
3.29143e-06
1.71589e-05
9.12937e-05
0.000288581
0.00048761
0.000669874
0.000676709
0.000482227
5.67209e-05
5.69159e-05
0.000484989
0.000682949
0.000681588
0.000501843
0.000305469
9.97343e-05
1.95077e-05
3.63412e-06
5.18711e-07
3.97287e-07
4.11224e-07
4.10464e-07
5.12278e-07
4.72161e-07
3.72132e-07
4.03698e-07
5.02074e-07
4.82042e-07
4.44015e-07
5.14764e-07
5.0604e-07
4.71499e-07
5.08243e-07
5.21716e-07
5.18014e-07
5.42607e-07
5.19018e-07
5.41185e-07
5.04631e-07
5.39947e-07
5.03275e-07
5.25689e-07
4.92851e-07
5.00674e-07
4.70578e-07
4.77454e-07
4.61778e-07
4.51612e-07
4.75251e-07
6.25139e-07
3.72185e-06
2.05646e-05
0.00010071
0.000306109
0.000501975
0.00068152
0.000682851
0.000484935
5.69127e-05
5.71077e-05
0.000487625
0.00068861
0.00069211
0.000515261
0.000321707
0.000110312
2.29958e-05
4.09807e-06
5.57491e-07
4.03914e-07
3.97569e-07
4.00756e-07
3.52855e-07
3.90267e-07
4.91629e-07
4.83096e-07
4.56608e-07
4.73307e-07
5.16553e-07
4.47882e-07
5.09325e-07
5.09515e-07
4.84115e-07
4.79208e-07
5.2297e-07
5.22135e-07
5.27063e-07
5.30064e-07
5.30842e-07
5.28696e-07
5.1554e-07
5.18842e-07
5.02728e-07
4.99416e-07
4.77768e-07
4.79069e-07
4.67555e-07
4.52048e-07
4.1656e-07
5.5512e-07
3.97842e-06
2.18568e-05
0.000109846
0.000321891
0.000515709
0.000692415
0.000688722
0.000487536
5.70985e-05
5.72817e-05
0.000490054
0.000694414
0.000702957
0.000528822
0.000332736
0.000118586
2.45225e-05
4.40142e-06
6.02272e-07
3.85597e-07
3.98782e-07
3.95842e-07
4.96313e-07
4.63473e-07
3.65878e-07
3.94211e-07
4.8908e-07
4.75025e-07
4.31411e-07
5.12485e-07
4.99109e-07
4.64491e-07
5.11889e-07
5.30524e-07
5.23017e-07
5.48122e-07
5.26073e-07
5.53751e-07
5.19954e-07
5.56686e-07
5.21427e-07
5.45184e-07
5.1412e-07
5.21476e-07
4.92765e-07
4.97777e-07
4.83607e-07
4.72441e-07
4.9615e-07
7.83205e-07
4.52917e-06
2.5593e-05
0.000119668
0.00033326
0.000529087
0.000702929
0.000694307
0.000490009
5.72772e-05
5.74647e-05
0.000492582
0.00069954
0.000712604
0.000541294
0.000343736
0.000129045
2.8502e-05
4.96663e-06
6.63061e-07
3.90048e-07
3.82374e-07
3.91276e-07
3.4355e-07
3.74288e-07
4.69576e-07
4.69194e-07
4.42846e-07
4.58626e-07
5.05329e-07
4.3539e-07
4.97793e-07
5.06853e-07
4.75502e-07
4.71731e-07
5.201e-07
5.25976e-07
5.36717e-07
5.3833e-07
5.42929e-07
5.44026e-07
5.35852e-07
5.39689e-07
5.27196e-07
5.23497e-07
5.03954e-07
5.03998e-07
4.9372e-07
4.76944e-07
4.39707e-07
7.1953e-07
4.79291e-06
2.74482e-05
0.000128932
0.000344167
0.000542008
0.000713022
0.000699648
0.000492392
5.74504e-05
5.76257e-05
0.000494726
0.000704865
0.000722303
0.000554015
0.000354081
0.00013738
3.01694e-05
5.31131e-06
7.18956e-07
3.68035e-07
3.79016e-07
3.75076e-07
4.72938e-07
4.45649e-07
3.52936e-07
3.78058e-07
4.67617e-07
4.59083e-07
4.1173e-07
5.04074e-07
4.85465e-07
4.49555e-07
5.12522e-07
5.38981e-07
5.26849e-07
5.52479e-07
5.33443e-07
5.70651e-07
5.41432e-07
5.81761e-07
5.48459e-07
5.77133e-07
5.47414e-07
5.57251e-07
5.28879e-07
5.33905e-07
5.20096e-07
5.08197e-07
5.34171e-07
1.06263e-06
5.48794e-06
3.12977e-05
0.000138765
0.000354862
0.000554512
0.000722401
0.000704738
0.000494653
5.7617e-05
5.77991e-05
0.000497171
0.000709528
0.00072984
0.000565471
0.000364343
0.000147597
3.43727e-05
5.995e-06
8.06816e-07
3.69273e-07
3.59915e-07
3.71453e-07
3.25817e-07
3.51246e-07
4.38321e-07
4.4584e-07
4.20201e-07
4.35451e-07
4.8513e-07
4.13188e-07
4.77422e-07
4.98842e-07
4.57869e-07
4.54923e-07
5.10696e-07
5.269e-07
5.46413e-07
5.46829e-07
5.57478e-07
5.65776e-07
5.65861e-07
5.73058e-07
5.66e-07
5.64915e-07
5.4765e-07
5.4842e-07
5.39099e-07
5.20897e-07
4.80585e-07
1.01562e-06
5.76717e-06
3.36102e-05
0.000148072
0.000365163
0.000566562
0.00073046
0.000709617
0.000496847
5.77784e-05
5.79512e-05
0.000499089
0.000714418
0.000737857
0.000577283
0.000374108
0.000155921
3.6444e-05
6.33614e-06
8.69932e-07
3.43049e-07
3.50911e-07
3.47758e-07
4.38824e-07
4.16729e-07
3.3195e-07
3.52809e-07
4.34886e-07
4.31331e-07
3.82675e-07
4.85572e-07
4.61389e-07
4.22847e-07
5.06474e-07
5.43808e-07
5.25163e-07
5.50878e-07
5.3708e-07
5.89348e-07
5.69183e-07
6.16568e-07
5.873e-07
6.28136e-07
6.00663e-07
6.19362e-07
5.91399e-07
5.99488e-07
5.85816e-07
5.7335e-07
6.05405e-07
1.56756e-06
6.5986e-06
3.75382e-05
0.000157936
0.000375328
0.000578142
0.000738093
0.000714259
0.00049894
5.79335e-05
5.81118e-05
0.000501453
0.000718666
0.0007445
0.000587679
0.000383674
0.000165857
4.05791e-05
7.15847e-06
9.84631e-07
3.41e-07
3.29498e-07
3.41465e-07
2.99327e-07
3.19566e-07
3.96753e-07
4.1271e-07
3.87402e-07
4.01376e-07
4.53406e-07
3.79193e-07
4.44665e-07
4.8137e-07
4.27377e-07
4.24247e-07
4.89082e-07
5.17112e-07
5.51132e-07
5.51605e-07
5.70292e-07
5.90018e-07
6.06379e-07
6.22787e-07
6.26989e-07
6.35684e-07
6.24347e-07
6.29957e-07
6.22766e-07
6.03394e-07
5.59204e-07
1.62372e-06
6.89602e-06
4.02028e-05
0.000167284
0.000385095
0.000589284
0.000745376
0.000718712
0.000500958
5.80835e-05
5.82614e-05
0.000503176
0.000723145
0.000751855
0.000598577
0.000392862
0.00017403
4.30365e-05
7.50115e-06
1.04633e-06
3.11052e-07
3.15205e-07
3.13412e-07
3.93433e-07
3.77807e-07
3.02704e-07
3.17e-07
3.90884e-07
3.90575e-07
3.42792e-07
4.53586e-07
4.2326e-07
3.81608e-07
4.85767e-07
5.37866e-07
5.09767e-07
5.32134e-07
5.22481e-07
5.95804e-07
5.95249e-07
6.55385e-07
6.34716e-07
7.03455e-07
6.84751e-07
7.30383e-07
7.08079e-07
7.2933e-07
7.17909e-07
7.1225e-07
7.52883e-07
2.27763e-06
7.85563e-06
4.42205e-05
0.000177158
0.0003948
0.000600002
0.0007523
0.000722936
0.000502889
5.82277e-05
5.84047e-05
0.000505485
0.00072703
0.000757718
0.000608016
0.000401722
0.000183578
4.70533e-05
8.44532e-06
1.17814e-06
3.05743e-07
2.91925e-07
3.03348e-07
2.65474e-07
2.78951e-07
3.46114e-07
3.70607e-07
3.44273e-07
3.56475e-07
4.08513e-07
3.33238e-07
3.96865e-07
4.49383e-07
3.8184e-07
3.75894e-07
4.42973e-07
4.8868e-07
5.40071e-07
5.37637e-07
5.58398e-07
6.00636e-07
6.48658e-07
6.88943e-07
7.11612e-07
7.53388e-07
7.66357e-07
7.9066e-07
7.95534e-07
7.81956e-07
7.32463e-07
2.42485e-06
8.17329e-06
4.71901e-05
0.000186516
0.000404065
0.000610281
0.000758944
0.000727003
0.000504727
5.83666e-05
5.85587e-05
0.000507024
0.000731163
0.000764526
0.000618024
0.000410347
0.000191453
4.9777e-05
8.79178e-06
1.22589e-06
2.73604e-07
2.73808e-07
2.72891e-07
3.40766e-07
3.32542e-07
2.65527e-07
2.7222e-07
3.37164e-07
3.37987e-07
2.94181e-07
4.05366e-07
3.70389e-07
3.26277e-07
4.40796e-07
5.12184e-07
4.73923e-07
4.71486e-07
4.66089e-07
5.6407e-07
6.00983e-07
6.5917e-07
6.49297e-07
7.70048e-07
7.93681e-07
9.14929e-07
9.33227e-07
1.0266e-06
1.04156e-06
1.08769e-06
1.15668e-06
2.33538e-06
9.25617e-06
5.13077e-05
0.000196395
0.000413366
0.000620235
0.000765277
0.00073085
0.000506496
5.84999e-05
5.86902e-05
0.000509243
0.000734734
0.000769677
0.000626552
0.000418485
0.00020049
5.36571e-05
9.79211e-06
1.35349e-06
2.66258e-07
2.49713e-07
2.60299e-07
2.27012e-07
2.33521e-07
2.90415e-07
3.22411e-07
2.94072e-07
3.04053e-07
3.51897e-07
2.79657e-07
3.34679e-07
4.01133e-07
3.23768e-07
3.10671e-07
3.75046e-07
4.3951e-07
4.95222e-07
4.7832e-07
4.97447e-07
5.69155e-07
6.47176e-07
7.03888e-07
7.39681e-07
8.68698e-07
9.86648e-07
1.10785e-06
1.27225e-06
1.33754e-06
1.22695e-06
2.54581e-06
9.59472e-06
5.45576e-05
0.000205763
0.000422181
0.000629728
0.000771382
0.000734567
0.000508159
5.86278e-05
5.88399e-05
0.00051069
0.00073853
0.000776031
0.000635795
0.000426517
0.000207924
5.65359e-05
1.02308e-05
1.38841e-06
2.33841e-07
2.30952e-07
2.29955e-07
2.86002e-07
2.86015e-07
2.24326e-07
2.22943e-07
2.78713e-07
2.79648e-07
2.42766e-07
3.44714e-07
3.10669e-07
2.64186e-07
3.72057e-07
4.63783e-07
4.08854e-07
3.74323e-07
3.75208e-07
4.75375e-07
5.27109e-07
5.56582e-07
5.62087e-07
7.0443e-07
8.1453e-07
9.7057e-07
1.10185e-06
1.39616e-06
1.59607e-06
1.94625e-06
2.51417e-06
2.45706e-06
1.07995e-05
5.87902e-05
0.000215659
0.00043113
0.00063898
0.000777214
0.000738073
0.00050976
5.87503e-05
5.8962e-05
0.000512805
0.000741812
0.000780539
0.000643565
0.000433922
0.000216313
6.02396e-05
1.12094e-05
1.48202e-06
2.25489e-07
2.05951e-07
2.16575e-07
1.8814e-07
1.88164e-07
2.3766e-07
2.71794e-07
2.42753e-07
2.49663e-07
2.89295e-07
2.24828e-07
2.67349e-07
3.39029e-07
2.63819e-07
2.41355e-07
2.97662e-07
3.72855e-07
4.13815e-07
3.83639e-07
3.95824e-07
4.59306e-07
5.30821e-07
5.57556e-07
5.84955e-07
7.42414e-07
9.1772e-07
1.09817e-06
1.5002e-06
3.28394e-06
6.07345e-06
2.71819e-06
1.11589e-05
6.2319e-05
0.000225109
0.000439594
0.00064775
0.000782857
0.000741471
0.000511253