/*--------------------------------*- C++ -*----------------------------------*\
| =========                 |                                                 |
| \\      /  F ield         | OpenFOAM: The Open Source CFD Toolbox           |
|  \\    /   O peration     | Version:  2.1.0                                 |
|   \\  /    A nd           | Web:      www.OpenFOAM.org                      |
|    \\/     M anipulation  |                                                 |
\*---------------------------------------------------------------------------*/
FoamFile
{
    version     2.0;
    format      ascii;
    class       volScalarField;
    location    "10000";
    object      Frot;
}
// * * * * * * * * * * * * * * * * * * * * * * * * * * * * * * * * * * * * * //

dimensions      [0 0 0 0 0 0 0];

internalField   nonuniform List<scalar> 
15000
(
1.25
1.0025
1.11084
0
1.25
0
1.25
1.25
0
0
0
0
0
0
0
0
0
0
0
0
0
0
0
0
0
1.25
1.25
1.25
1.25
1.25
1.25
1.25
1.25
1.25
1.25
1.25
1.25
1.25
1.25
1.25
1.25
1.25
1.25
1.25
1.25
0
1.25
1.11808
1.03678
1.25
1.25
0.999049
1.02207
1.25
1.25
0
1.25
0
0
0
0
0
1.25
0
0
0
0
0
0
0
0
0
0
1.25
1.25
1.25
1.25
0
1.25
1.25
1.25
1.25
1.25
1.25
1.25
1.25
1.25
1.25
1.25
1.25
1.25
1.25
1.25
1.25
1.25
0
1.25
1.02374
1.00358
1.25
1.24776
1.00028
1.01292
1.25
1.25
0
1.25
0
1.25
1.25
1.25
1.25
1.25
1.25
1.25
0
1.25
1.25
1.25
1.25
1.25
0
0
1.25
1.25
1.25
0
0
0
0
0
0
0
0
0
0
0
0
0
0
0
0
1.25
0
1.25
0
1.25
1.01383
1.00067
1.24811
1.17888
0.999712
1.00586
1.25
1.25
0
1.25
0
1.25
0
1.25
1.25
0
1.25
1.25
1.25
1.25
1.25
1.25
1.25
0
1.25
1.25
0
0
0
0
0
0
0
0
0
0
0
0
0
0
0
0
0
1.25
0
1.25
0
1.25
1.25
1.25
1.00663
0.99915
1.17912
1.13239
0.999256
1.00287
1.06294
1.25
0
1.25
0
1.25
0
0
0
0
0
0
1.25
0
0
0
0
0
0
1.25
0
0
0
1.25
1.25
1.25
1.25
1.25
1.25
1.25
1.25
1.25
1.25
1.25
1.25
1.25
1.25
1.25
0
1.25
0
1.25
1.25
1.05965
1.00358
0.998824
1.13251
1.10045
0.999065
1.00174
1.01317
1.25
0
1.25
0
1.25
0
1.25
0
0
1.25
1.25
1.25
1.25
1.25
1.25
1.25
0
1.25
1.25
0
0
0
0
0
0
0
0
0
0
0
0
0
0
0
1.25
0
1.25
0
1.25
0
1.25
1.25
1.0104
1.00233
0.998854
1.10049
1.07792
0.99906
1.00128
1.00171
1.23631
1.25
1.25
0
1.25
0
1.25
0
1.25
0
0
0
0
1.25
0
0
0
1.25
0
1.25
0.201665
1.25
1.25
1.25
1.25
1.25
1.25
1.25
1.25
1.25
1.25
0
1.25
0
1.25
0
1.25
0
1.25
0
0
1.21356
0.999709
1.00169
0.998978
1.07793
1.06123
0.999155
1.00102
0.99911
1.05519
0
0
0
1.25
0
1.25
0
1.25
0
1.25
0
1.25
0
1.25
0
0
0
0
1.25
1.25
1.25
1.25
1.25
1.25
0
1.25
0
1.25
0
1.25
0
1.25
0
1.25
0
1.25
0
1.25
1.25
1.25
1.0508
0.997743
1.00128
0.999137
1.06123
1.04838
0.999291
1.0008
0.9987
1.01425
0.422385
0
1.25
1.25
0
1.25
0
1.25
0
1.25
0
0
1.25
0
1.25
0
1.25
0
1.25
1.25
1.25
1.25
1.25
0
1.25
0
1.25
1.25
0
1.25
0
1.25
0
1.25
0
1.25
0
1.25
1.25
1.25
1.01442
0.99782
1.00095
0.999293
1.04837
1.03826
0.999424
1.00062
0.998774
1.00502
0.742164
0
1.25
1.25
0
1.25
0
1.25
0
1.25
0
1.25
0
1.25
0
0
0
0
0.23979
1.25
1.25
0
0
0
0
1.25
0
1.25
0
1.25
0
1.25
0
1.25
0
1.25
0
0
1.25
1.25
1.00605
0.998223
1.00071
0.999426
1.03826
1.03023
0.999536
1.00048
0.998953
1.00251
0.866315
0
1.25
0
0
1.25
0
1.25
0
1.25
0
0
1.25
0
1.25
0
1.25
0
0
1.25
1.25
0
1.25
1.25
1.25
0
1.25
1.25
1.25
1.25
0
1.25
0
1.25
0
1.25
1.25
0
1.25
1.12699
1.00333
0.998624
1.00052
0.999539
1.03023
1.02384
0.999621
1.00035
0.99916
1.00137
0.95052
0
1.25
0
0
1.25
0
1.25
0
1.25
0
1.25
0
1.25
0
0
0
0
0
1.25
0
1.25
0
0
0
1.25
0
1.25
0
1.25
0
1.25
0
1.25
0
0
1.25
0
1.25
1.0108
1.00181
0.998954
1.00038
0.999624
1.02384
1.01879
0.999683
1.00025
0.999295
1.00089
0.980316
0
1.25
0
1.25
1.25
0
1.25
0
1.25
0
0
1.25
0
1.25
0
1.25
0
0
1.25
0
0
1.25
0
1.25
1.25
1.25
1.25
1.25
1.25
0
1.25
0
1.25
0
0
1.25
0
1.25
0.995331
1.00109
0.99918
1.00028
0.999685
1.01878
1.01479
0.999738
1.0002
0.999406
1.0006
0.991269
0
1.25
0
1.25
0
0
1.25
0
1.25
0
1.25
0
1.25
0
0
0
0
0
1.25
0
1.25
0
1.25
0
1.25
0
1.25
0
1.25
0
1.25
0
1.25
0
0
1.25
0
1.25
0.994583
1.00065
0.999357
1.00021
0.999739
1.01479
1.01164
0.999782
1.00017
0.999498
1.00038
0.995453
1.25
1.25
0
1.25
0
1.25
1.25
1.25
0
0
0
1.25
0
1.25
0
1.25
0
0
1.25
0
0
1.25
0
1.25
1.25
1.25
0
1.25
1.25
0
1.25
0
1.25
1.25
0
1.25
0
0.074653
0.996042
1.00036
0.999487
1.00017
0.999783
1.01164
1.00916
0.999814
1.00014
0.999593
1.00021
0.997353
1.25
1.25
0
1.25
0
0
1.25
0
1.25
0
1.25
0
1.25
0
0
0
0
0
1.25
0
1.25
0
1.25
0
1.25
0
1.25
0
1.25
0
1.25
0
0
1.25
0
1.25
0
0.986214
0.997453
1.00019
0.999596
1.00015
0.999815
1.00916
1.00721
0.999844
1.00013
0.999679
1.00016
0.998106
1.1982
1.25
0
1.25
0
1.25
0
1.25
0
0
0
1.25
0
1.25
0
1.25
0
0
1.25
0
0
1.25
0
1.25
1.25
1.25
0
1.25
1.25
0
1.25
1.25
0
1.25
0
1.25
0
0.971136
0.998167
1.00011
0.99968
1.00013
0.999845
1.00721
1.00568
0.999871
1.00012
0.999733
1.00006
0.998692
1.05735
1.25
0
1.25
0
0
1.25
1.25
1.25
0
1.25
0
1.25
0
0
0
0
0
1.25
0
1.25
0
1.25
0
1.25
0
1.25
0
1.25
0
1.25
1.25
0
1.25
0
1.25
0
1.00376
0.998748
1.00004
0.999758
1.00012
0.999872
1.00568
1.00448
0.999892
1.0001
0.999805
0.99997
0.999166
1.01082
1.25
0
1.25
0
1.25
0
1.25
0
0
0
1.25
0
1.25
1.25
0
0
0
1.25
0
0
1.25
0
1.25
1.25
1.25
0
1.25
0
0
0
1.25
0
1.25
0
1.25
0
1.01104
0.999226
0.999972
0.999805
1.0001
0.999893
1.00448
1.00353
0.999908
1.00008
0.999829
0.999955
0.999292
1.00757
1.25
0
1.25
0
0
1.25
1.25
1.25
0
1.25
0
1.25
0
0
1.25
0
0
1.25
0
1.25
0
1.25
0
1.25
0
1.25
0
1.25
0
1.25
1.25
0
1.25
0
1.25
0
1.00262
0.999277
0.999952
0.999829
1.00008
0.999909
1.00353
1.00279
0.99992
1.00006
0.999844
0.999924
0.999385
1.00455
0
0
1.25
0
1.25
0
1.25
0
1.25
0
1.25
0
1.25
1.25
0
0
0
1.25
0
0
1.25
0
1.25
0
1.25
0
1.25
0
1.25
0
1.25
0
1.25
0
1.25
0
1.00104
0.999372
0.999936
0.999843
1.00007
0.999921
1.00279
1.00221
0.999931
1.00005
0.999867
0.999899
0.999481
1.00269
1.25
0
1.25
1.25
0
1.25
1.25
1.25
0
1.25
0
1.25
0
1.25
1.25
0
0
1.25
0
1.25
0
1.25
0
1.25
0
1.25
0
1.25
1.25
0
1.25
0
1.25
0
1.25
1.25
1.00065
0.999458
0.99992
0.99986
1.00005
0.999931
1.00221
1.00175
0.999939
1.00003
0.999897
0.999896
0.999549
1.00135
0.781975
0
1.25
0
1.25
0
1.25
0
1.25
0
1.25
0
1.25
1.25
0
0
0
1.25
0
0
1.25
0
1.25
0
1.25
0
1.25
0
1.25
0
1.25
0
1.25
0
1.25
1.25
1.00041
0.999559
0.999924
0.999886
1.00004
0.99994
1.00175
1.00138
0.999947
1.00002
0.999924
0.999911
0.999627
1.0007
1.25
1.25
1.25
1.25
0
1.25
1.25
1.25
0
1.25
0
1.25
0
1.25
1.25
0
0
1.25
0
1.25
0
1.25
0
1.25
0
1.25
0
1.25
1.25
0
1.25
0
1.25
0
1.25
1.25
1.00017
0.999621
0.999935
0.999907
1.00002
0.999946
1.00138
1.0011
0.999952
1.00001
0.999928
0.999918
0.99965
1.00039
0.950027
0
1.25
0
1.25
0
1.25
0
1.25
0
1.25
0
1.25
1.25
0
0
0
1.25
0
0
1.25
0
1.25
0
1.25
0
1.25
0
1.25
0
1.25
0
1.25
0
1.25
1.1992
1.00004
0.999665
0.999943
0.999919
1.00002
0.999953
1.0011
1.00087
0.999957
1.00001
0.999935
0.999927
0.999688
1.00019
1.07959
1.25
0
1.25
0
1.25
0
1.25
0
1.25
0
1.25
0
1.25
1.25
0
0
1.25
0
1.25
0
1.25
0
1.25
0
1.25
0
1.25
1.25
1.25
1.25
0
1.25
0
1.25
1.07636
0.999945
0.999691
0.999937
0.999924
1.00002
0.999957
1.00087
1.00069
0.99996
1.00001
0.99993
0.999917
0.999685
1.00004
1.00136
0
1.25
0
1.25
0
1.25
0
1.25
0
1.25
0
1.25
1.25
0
0
0
1.25
0
0
1.25
0
1.25
0
1.25
0
1.25
0
1.25
0
1.25
0
1.25
0
1.25
1.02934
0.999866
0.999711
0.999944
0.999929
1.00002
0.999961
1.00069
1.00055
0.999964
1.00001
0.999932
0.999923
0.999719
0.99993
1.01744
1.25
0
1.25
0
1.25
0
1.25
0
1.25
0
1.25
0
1.25
1.25
0
0
1.25
0
1.25
0
1.25
0
1.25
0
1.25
0
1.25
1.25
1.25
1.25
0
1.25
1.25
0
1.01489
0.999798
0.999729
0.999938
0.999927
1.00001
0.999964
1.00055
1.00043
0.999966
1
0.99993
0.999919
0.999728
0.99993
0.99947
0
1.25
0
1.25
0
1.25
0
1.25
0
1.25
0
0
1.25
0
0
0
1.25
0
0
0
0
1.25
0
1.25
0
1.25
0
1.25
0
1.25
0
1.25
0
1.25
1.0073
0.999842
0.999792
0.999947
0.999938
1.00002
0.999969
1.00043
1.00035
0.99997
1
0.999936
0.999915
0.999749
0.99981
1.00337
1.25
0
1.25
0
1.25
0
1.25
0.0290028
1.25
0
1.25
1.25
1.25
1.25
0
0
1.25
0
1.25
0
1.25
0
1.25
0
1.25
0
1.25
1.25
1.25
1.25
0
1.25
0
1.25
1.00189
0.999768
0.999783
0.999937
0.999938
1.00001
0.999971
1.00035
1.00027
0.999969
0.999994
0.999921
0.999901
0.999706
0.999793
1.00092
0
1.25
0
1.25
0
1.25
0
1.25
0
1.25
0
0
1.25
0
0
0
1.25
0
0
0
0
1.25
0
1.25
0
1.25
0
1.25
0
1.25
0
1.25
0
0.05837
1.00142
0.999815
0.999783
0.999938
0.999942
1.00001
0.999974
1.00027
1.00022
0.999973
0.999995
0.999926
0.999904
0.999733
0.999735
1.00102
1.25
0
1.25
0
1.25
0
1.25
1.25
1.25
1.25
0
1.25
1.25
1.25
0
0
1.25
0
1.25
0
1.25
0
1.25
0
1.25
0
1.25
1.25
1.25
1.25
0
1.25
1.25
1.25
1.00059
0.999798
0.999803
0.999942
0.999945
1.00001
0.999976
1.00022
1.00017
0.999969
0.999987
0.999906
0.99989
0.999704
0.999693
0.99962
0
1.25
0
1.25
0
1.25
0
1.25
0
1.25
1.25
0
1.25
0
0
0
1.25
0
0
1.25
0
1.25
0
1.25
0
1.25
0
1.25
0
1.25
0
1.25
0
1.13108
1.00058
0.999834
0.999831
0.999954
0.999953
1.00002
0.99998
1.00017
1.00014
0.999983
0.999985
0.999917
0.999896
0.999731
0.99966
0.999769
0
0
1.25
0
1.25
0
1.25
1.25
0
1.25
0
1.25
1.25
1.25
0
0
1.25
0
1.25
0
1.25
0
1.25
0
1.25
0
1.25
1.25
1.25
1.25
1.25
1.25
1.25
1.25
1.00043
0.999853
0.999855
0.999964
0.99996
1.00002
0.999982
1.00014
1.00011
0.999967
0.99997
0.999887
0.999867
0.999684
0.999594
0.998849
1.25
1.25
0
1.25
0
1.25
0
1.25
0
0
0
0
1.25
0
0
0
1.25
0
0
1.25
0
1.25
0
1.25
0
1.25
0
1.25
0
1.25
0
1.25
0
1.25
1.00062
0.999907
0.999887
0.999982
0.999973
1.00002
0.999986
1.00011
1.00009
0.999971
0.999971
0.999886
0.99987
0.999697
0.99955
0.998981
0.663195
0
1.25
0
1.25
0
1.25
1.25
0
1.25
0
1.25
1.25
1.25
0
0
1.25
0
1.25
0
1.25
0
1.25
0
1.25
1.25
1.25
1.25
1.25
1.25
1.25
1.25
1.25
1.25
1.00079
0.99998
0.999927
1.00001
0.999988
1.00003
0.99999
1.00009
1.00007
0.999963
0.999947
0.999841
0.999842
0.999646
0.999477
0.998094
1.25
1.25
0
1.25
0
1.25
0
1.25
1.25
0
1.25
0
1.25
0
0
0
1.25
0
0
1.25
0
1.25
0
1.25
0
1.25
0
1.25
0
1.25
0
0
0
1.25
1.00099
1.00007
0.999979
1.00004
0.999998
1.00004
0.999994
1.00007
1.00006
0.999963
0.999943
0.999825
0.999829
0.999661
0.999411
0.998157
1.11071
0
1.25
0
0
0
1.25
1.25
0
1.25
0
1.25
1.25
1.25
0
0
1.25
0
1.25
0
1.25
0
1.25
0
1.25
0
1.25
1.25
1.25
1.25
1.25
1.25
1.25
1.15981
1.00128
1.00018
1.00006
1.00009
1.00003
1.00006
1
1.00006
1.00004
0.999959
0.999911
0.999787
0.999766
0.999586
0.999287
0.997442
1.11341
1.25
0
1.25
0
1.25
0
1.25
1.25
0
1.25
0
1.25
0
0
0
1.25
0
0
1.25
0
1.25
0
1.25
0
1.25
0
1.25
0
1.25
0
0
0
1.13186
1.00151
1.00026
1.00012
1.00013
1.00005
1.00007
1.00001
1.00005
1.00003
0.999942
0.999909
0.999766
0.999725
0.999556
0.999166
0.997428
1.04848
0
1.25
0
1.25
0
1.25
1.25
0
1.25
0
1.25
1.25
1.25
0
0
1.25
0
1.25
0
1.25
0
1.25
0
1.25
0
1.25
0
1.25
0.340041
1.25
1.25
1.25
1.08255
1.00206
1.00043
1.00022
1.0002
1.00011
1.0001
1.00002
1.00004
1.00003
0.999947
0.999859
0.999708
0.999638
0.999438
0.998984
0.996578
1.01826
1.25
0
1.25
0
1.25
0
1.25
1.25
0
1.25
0
1.25
0
0
0
1.25
0
0
1.25
0
1.25
0
1.25
0
1.25
0
1.25
0
1.25
0
0
0
1.07014
1.00236
1.00057
1.0003
1.00026
1.00016
1.00013
1.00002
1.00003
1.00002
0.999924
0.999833
0.999662
0.999556
0.999335
0.998803
0.996368
1.01622
0
1.25
0
1.25
0
1.25
0
0
1.25
0
1.25
1.25
1.25
0
0
1.25
0
1.25
0
1.25
0
1.25
0
1.25
0
1.25
0
1.25
0.84905
1.25
1.25
1.25
1.05998
1.00317
1.00082
1.00045
1.00037
1.00025
1.00017
1.00004
1.00002
1.00002
0.999909
0.999784
0.999554
0.999431
0.999181
0.998535
0.995344
0.980576
1.25
0
1.25
0
1.25
0
1.25
1.25
0
1.25
0
1.25
1.25
0
0
1.25
0
0
1.25
0
1.25
0
1.25
0
1.25
0
0
0
0
0
0
1.25
1.05709
1.00365
1.00102
1.00058
1.00047
1.00033
1.00021
1.00005
1.00002
1.00001
0.999931
0.999708
0.999527
0.999329
0.999044
0.998299
0.994951
0.992797
1.25
1.25
1.25
1.25
0
1.25
0
0
0
0
1.25
1.25
0
0
0
1.25
0
1.25
0
1.25
0
1.25
1.25
1.25
0
1.25
1.25
1.25
1.25
1.25
0
0
1.05221
1.0045
1.00136
1.00079
1.00062
1.00044
1.00028
1.00008
1.00002
1.00001
0.999878
0.999627
0.999349
0.999086
0.998772
0.997871
0.993619
0.962312
0
0
0
0
1.25
0
1.25
1.25
1.25
1.25
0
1.25
1.25
0
0
1.25
1.25
0
1.25
0
1.25
0
0
0
0
0
0
0
0
0
1.25
1.25
1.058
1.00544
1.0017
1.00102
1.0008
1.00057
1.00035
1.0001
1.00002
1
0.999846
0.999623
0.999203
0.998972
0.998578
0.997528
0.992948
0.968491
1.25
1.25
1.25
1.25
0
1.25
0
0
0
0
1.25
1.25
1.25
0
0
1.25
1.25
1.25
0
1.25
0
1.25
0
1.25
0
1.25
1.25
1.25
1.25
0
0
0
1.05958
1.00637
1.0021
1.00127
1.00099
1.00071
1.00043
1.00013
1.00001
1
0.999814
0.999456
0.998993
0.99864
0.998161
0.996942
0.991286
0.948437
0
0
0
0
1.25
0
1.25
0
1.25
1.25
0
1.25
0
0
0
1.25
1.25
0
1.25
0
1.25
0
1.25
0
1.25
0
0
0
0
1.25
1.25
1.25
1.06653
1.00781
1.00265
1.00164
1.00128
1.00092
1.00055
1.00017
1.00001
0.999997
0.999792
0.999349
0.998912
0.998424
0.9979
0.996486
0.990254
0.94791
1.25
1.25
1.25
1.25
1.25
0
0
1.25
0
0
1.25
1.25
1.25
0
0
1.25
1.25
0
0
1.25
0
1.25
0
1.25
0
1.25
0
0
0
0
0
0
1.07004
1.00899
1.00317
1.00199
1.00156
1.00113
1.00067
1.0002
1.00001
0.999994
0.999749
0.999195
0.998577
0.997962
0.997348
0.995633
0.988253
0.930875
0
0
0
0
1.25
1.25
1.25
1.25
1.25
1.25
1.25
1.25
0
0
0
1.25
0
1.25
0
0
1.25
0
1.25
0
1.25
0
1.25
1.25
1.25
0
0
0
1.08012
1.01077
1.00393
1.00249
1.00196
1.00141
1.00083
1.00026
1.00002
0.99999
0.999693
0.999034
0.998295
0.99769
0.996919
0.995012
0.986708
0.926463
1.25
1.25
0
0.294245
1.25
1.25
0
1.25
1.25
0
1.25
1.25
1.25
0
0
1.25
0
1.25
0
1.25
0
1.25
0
1.25
0
1.25
0
0
0
0.8895
1.25
0.362678
1.08614
1.01251
1.00474
1.00304
1.00239
1.00173
1.00101
1.00031
1.00002
0.999987
0.999637
0.998889
0.997974
0.997193
0.996216
0.993909
0.984228
0.912197
0
0
1.25
0
1.25
1.25
0
1.25
0
1.25
0
1.25
1.25
0
0
1.25
0
1.25
0
1.25
1.25
1.25
1.25
1.25
1.25
1.25
1.25
1.25
0.891307
1.25
1.25
0
1.09541
1.01457
1.00569
1.0037
1.00291
1.00211
1.00123
1.00038
1.00002
0.999983
0.999559
0.998586
0.997498
0.996541
0.995572
0.992971
0.981972
0.902053
1.25
1.25
0
0
1.25
1.25
1.25
0
0
0
0
1.25
0
0
0
1.25
0
1.25
0
1.25
0
1.25
0
1.25
0
1.25
0
1.25
0
0
0
1.25
1.10454
1.0168
1.00678
1.00446
1.00352
1.00255
1.00148
1.00046
1.00002
0.99998
0.999498
0.998397
0.997188
0.996026
0.994767
0.991769
0.979125
0.899099
0
0
1.25
0
1.25
1.25
0
0
1.25
0
0
1.25
1.25
0
1.25
1.25
0
0
1.25
0
1.25
1.25
1.25
1.25
0
1.25
1.25
1.25
1.25
0
0
1.25
1.1157
1.01937
1.00806
1.00537
1.00424
1.00307
1.00179
1.00056
1.00003
0.999975
0.99939
0.998055
0.996525
0.995145
0.993766
0.990293
0.975791
0.87532
1.25
1.25
0
1.25
1.25
1.25
1.25
0
0
1.25
0
1.25
0
0
1.25
1.25
0
0
1.25
1.25
0
1.25
0
1.25
0
1.25
0
0
0
0
1.25
1.25
1.12559
1.02205
1.00948
1.0064
1.00506
1.00367
1.00213
1.00066
1.00003
0.999972
0.99931
0.997809
0.996102
0.994513
0.992804
0.988893
0.972599
0.878824
0
0
1.25
0
1.25
1.25
0
0
1.25
0
0
1.25
0
0
1.25
1.25
0
0
1.25
0
1.25
1.25
1.25
1.25
1.25
1.25
1.25
1.25
1.25
0
0
1.25
1.13758
1.02523
1.01111
1.00761
1.00602
1.00437
1.00254
1.00079
1.00004
0.999965
0.999171
0.997346
0.995283
0.993341
0.991469
0.986868
0.968092
0.852329
1.25
1.25
0
1.25
1.25
1.25
1.25
0
0
1.25
0
1.25
0
0
1.25
1.25
0
0
1.25
1.25
0
1.25
0
1.25
0
1.25
0
0
0
0
1.25
1.25
1.1476
1.0286
1.01292
1.00896
1.0071
1.00516
1.00299
1.00093
1.00004
0.99996
0.999069
0.997054
0.994692
0.992601
0.990314
0.985126
0.962161
0.848708
0
0
1.25
0
1.25
1.25
0
0
1.25
0
0
1.25
0
0
1.25
1.25
0
1.25
1.25
1.25
1.25
1.25
1.25
1.25
1.25
1.25
1.25
1.25
1.25
1.25
0
1.25
1.15978
1.03246
1.015
1.01052
1.00835
1.00607
1.00352
1.0011
1.00005
0.999953
0.998911
0.99651
0.993782
0.991143
0.988603
0.982685
0.962877
0.843866
1.25
0
0
1.25
1.25
1.25
1.25
0
1.25
0
0
1.25
1.25
0
1.25
1.25
0
0
1.25
1.25
0
1.25
0
1.25
0
1.25
0
0
0
1.25
1.25
1.25
1.16995
1.03649
1.01727
1.01225
1.00973
1.00707
1.00408
1.00127
1.00006
0.999947
0.998783
0.996123
0.993019
0.990159
0.987178
0.980405
0.947555
0.821305
0
1.25
1.25
1.25
1.25
0
1.25
0
0
1.25
0
1.25
0
0
1.25
1.25
0
1.25
1.25
1.25
1.25
1.25
1.25
1.25
1.25
1.25
1.25
1.25
1.25
1.25
0
1.25
1.18245
1.04104
1.01984
1.01421
1.01129
1.00819
1.00471
1.00147
1.00006
0.999938
0.998596
0.995504
0.991948
0.988488
0.985121
0.977475
0.95092
0.788498
0
0
0
1.25
1.25
0
1.25
0
1.25
0
0
1.25
0
0
1.25
1.25
0
1.25
1.25
1.25
0
1.25
0
1.25
0
1.25
0
0
0
0
0
1.25
1.19269
1.04581
1.02268
1.01639
1.01299
1.00941
1.00528
1.00159
1.00006
0.99993
0.998443
0.995026
0.991007
0.987183
0.983382
0.974826
0.940407
0.923538
0
1.25
1.25
0
1.25
0
0
1.25
1.25
0
0
1.25
0
0
1.25
1.25
0
1.25
1.25
1.25
1.25
1.25
1.25
1.25
1.25
1.25
1.25
1.25
1.25
1.25
0
1.25
1.20513
1.05133
1.02589
1.01883
1.01487
1.01066
1.00595
1.00153
1.00005
0.999921
0.998236
0.994344
0.989834
0.985448
0.980822
0.971389
0.935502
0.689779
0
0
1.25
0
1.25
0
0
1.25
0
0
0
1.25
0
0
1.25
1.25
0
1.25
1.25
1.25
0
1.25
0
1.25
0
1.25
0
0
0
0
1.25
1.25
1.21343
1.05719
1.02956
1.02173
1.01742
1.01236
1.00708
1.00188
1.00005
0.999911
0.998047
0.993783
0.988627
0.983567
0.978729
0.967663
0.921239
1.04997
0
1.25
1.25
0
1.25
0
0
1.25
1.25
1.25
0
1.25
0
0
1.25
1.25
0
1.25
1.25
1.25
1.25
1.25
1.25
1.25
1.25
1.25
1.25
1.25
1.25
0
1.25
1.25
1.22663
1.06375
1.03391
1.02529
1.0204
1.01479
1.00859
1.00261
1.00009
0.9999
0.997838
0.993064
0.987543
0.982025
0.976337
0.964035
0.919551
0.725993
1.25
1.25
1.25
0
1.25
0
0
1.25
0
0
0
1.25
0
0
0
1.25
0
1.25
1.25
1.25
0
1.25
0
1.25
0
0
0
0
0
0
1.25
1.25
1.23928
1.07045
1.03856
1.02918
1.02368
1.01751
1.01018
1.00339
1.00013
0.99989
0.997625
0.992457
0.986075
0.979481
0.973226
0.95908
0.901667
1.0569
0
1.25
1.25
0
1.25
0
1.25
1.25
1.25
1.25
0
1.25
0
1.25
0
0
0
1.25
1.25
1.25
1.25
1.25
1.25
1.25
1.25
1.25
1.25
0
1.25
0
1.25
1.25
1.25
1.07758
1.04353
1.0334
1.0272
1.02046
1.01193
1.00423
1.00019
0.999877
0.997384
0.991656
0.98479
0.978069
0.970715
0.955479
0.899864
1.00897
0
1.25
1.25
0
1.25
0
1.25
1.25
0
0
0
1.25
0
0
0
1.25
0
1.25
1.25
0
0
0
0
1.25
0
0
0
0
0
0
1.25
1.25
1.25
1.08482
1.04873
1.03788
1.03087
1.02332
1.01361
1.00471
1.00023
0.999865
0.997173
0.991081
0.983303
0.975039
0.967347
0.949452
0.883276
1.0176
0
1.25
1.25
0
1.25
0
0
1.25
1.25
1.25
0
1.25
0
1.25
1.25
0
0
1.25
1.25
1.25
1.25
1.25
1.25
1.25
1.25
1.25
1.25
0
0
0
1.25
1.25
1.25
1.09235
1.05418
1.04252
1.03469
1.026
1.01522
1.00496
1.00023
0.99985
0.99692
0.990245
0.98202
0.973668
0.964382
0.945364
0.877381
1.22887
1.25
0
1.25
0
1.25
0
1.25
1.25
1.25
0
0
1.25
0
0
0
1.25
0
0
1.25
0
0
0
0
0
0
0
0
0
0
0
1.25
1.25
1.25
1.09986
1.05998
1.04754
1.03895
1.02906
1.01711
1.0055
1.00025
0.999837
0.996714
0.989746
0.980428
0.970192
0.960724
0.938541
0.861918
1.25
0
0
1.25
1.25
1.25
0
1.25
1.25
1.25
0
0
0
0
1.25
1.25
0
0
1.25
1.25
1.25
1.25
1.25
1.25
1.25
1.25
0
1.25
0
0
0
1.25
1.25
1.25
1.10793
1.06632
1.05308
1.04372
1.03262
1.01927
1.0062
1.00028
0.99982
0.996467
0.98894
0.979325
0.969154
0.957473
0.934162
0.85641
1.25
1.25
0
0
0
1.25
0
0
1.25
0
0
0
1.25
0
0
0
1.25
0
0
1.25
0
0
0
0
0
0
0
0
0
0
0
0
1.25
1.25
1.11598
1.07302
1.05905
1.04888
1.03653
1.02163
1.007
1.00031
0.999807
0.996277
0.98861
0.977637
0.965072
0.953555
0.925952
0.845426
1.25
0
0
1.25
1.25
0
0
1.25
1.25
1.25
0
0
0
0
1.25
1.25
0
0
1.25
1.25
1.25
1.25
0
1.25
0
0
0
0
0
0
0
0
1.25
1.25
1.12446
1.08018
1.06548
1.05447
1.04079
1.0242
1.00788
1.00035
0.999787
0.996063
0.987896
0.977067
0.964757
0.951142
0.920248
0.848188
1.25
1.25
0
0
0
1.25
0
0
1.25
0
0
0
1.25
0
0
0
1.25
0
0
1.25
0
0
0
0
0
0
0
0
0
0
0
0
1.25
1.25
1.13289
1.08768
1.07237
1.0605
1.04543
1.02701
1.00885
1.00039
0.999772
0.995908
0.987834
0.975351
0.959142
0.945926
0.912398
0.838627
1.25
1.25
0
1.25
1.25
1.25
0
1.25
1.25
1.25
0
1.25
0
0
1.25
1.25
0
0
1.25
1.25
0
1.25
0
0
0
0
0
0
0
1.25
0
0
1.25
1.25
1.14169
1.09565
1.07966
1.06699
1.05041
1.03003
1.00992
1.00044
0.99975
0.995749
0.987327
0.975447
0.961276
0.943906
0.906605
0.882273
1.1759
0
1.25
0
0
1.25
0
0
0
1.25
0
0
1.25
1.25
0
0
1.25
0
0
0
0
0
0
0
0
0
0
0
0
1.25
0
0
1.25
1.25
1.15029
1.10392
1.08739
1.07387
1.05576
1.03329
1.01108
1.0005
0.999734
0.995646
0.987723
0.973685
0.95354
0.937842
0.901759
0.777569
0
0
1.25
0
0
0
0
1.25
1.25
1.25
0
1.25
0
0
1.25
1.25
0
0
1.25
1.25
0
0
0
0
0
0
0
0
0
1.25
0
0.489617
1.25
1.25
1.15928
1.11262
1.09557
1.08112
1.06143
1.03677
1.01233
1.00057
0.999708
0.995581
0.987608
0.974695
0.959713
0.936855
0.890786
1.05874
0
0
1.25
1.25
1.25
0
0
0
0
0
0
0
0
1.25
0
0
1.25
0
0
0
0
0
0
0
0
0
0
0
0
1.25
0
0.315075
1.25
1.25
1.16803
1.1215
1.10421
1.08877
1.06745
1.04049
1.0137
1.00064
0.999691
0.995561
0.988647
0.973082
0.948171
0.931874
0.886988
0.856596
0
0
1.25
0
1.25
0
0
1.25
1.25
1.25
0
1.25
0
0
1.25
1.25
0
0
1.25
1.25
0
0
0
0
0
0
0
0
0
1.25
0
1.25
1.25
1.25
1.17725
1.13079
1.11319
1.09677
1.07373
1.04441
1.01517
1.00073
0.999659
0.995646
0.989107
0.975979
0.959264
0.931094
0.879077
1.18313
0
0
1.25
1.25
1.25
0
0
0
0
0
0
0
0
1.25
0
0
1.25
0
0
0
0
0
0
0
0
0
0
0
0
0
1.25
1.25
1.25
1.25
1.18638
1.14002
1.12276
1.10513
1.08033
1.04855
1.01676
1.00082
0.99964
0.995747
0.991065
0.974185
0.943286
0.927566
0.876446
1.16449
0
0
1.25
0
1.25
0
0
0
1.25
1.25
0
1.25
0
0
0
1.25
0
0
1.25
1.25
0
0
0
0
0
0
0
0
0
0
1.25
1.25
1.25
1.25
1.1959
1.14884
1.13273
1.11357
1.08716
1.05285
1.01846
1.00093
0.999602
0.996057
0.992424
0.981283
0.961368
0.928186
0.873842
1.25
0
0
1.25
1.25
1.25
0
0
1.25
0
0
0
0
0
1.25
0
0
1.25
0
0
0
0
0
0
0
0
0
0
0
0
0
1.25
1.25
1.25
1.25
1.20499
1.15889
1.14258
1.12244
1.09425
1.05735
1.02028
1.00105
0.999581
0.996331
0.995641
0.977464
0.938849
0.926341
0.879949
1.25
0
0
1.25
0
1.25
0
0
0
0
1.25
0
1.25
1.25
0
0
1.25
0
0
1.25
1.25
0
0
0
0
0
0
0
0
0
0
1.25
1.25
1.25
1.25
1.21376
1.16951
1.15237
1.13165
1.10146
1.06199
1.02221
1.00119
0.999532
0.996972
0.998031
0.988774
0.968046
0.930116
0.886002
1.25
0
0
1.25
1.25
1.25
0
0
1.25
0
0
0
0
0
1.25
1.25
0
1.25
0
0
0
0
0
0
0
0
0
0
0
0
0
1.25
1.25
1.25
1.25
1.22256
1.17969
1.16253
1.14105
1.10885
1.06683
1.02428
1.00136
0.999509
0.997473
1.00334
0.986817
0.935917
0.931787
0.916426
1.25
1.25
0
0
0
1.25
0
1.25
0
1.25
1.25
0
1.25
1.25
0
0
1.25
0
0
1.25
0
0
0
0
0
0
0
0
0
0
0
1.25
1.25
1.25
1.25
1.23107
1.18999
1.17283
1.15046
1.11629
1.07176
1.02646
1.00154
0.999447
0.99859
1.00819
1.00124
0.978449
0.940003
0.944151
1.2088
1.25
1.25
0
1.25
0
0
0
1.25
0
0
0
0
0
1.25
1.25
0
1.25
0
0
0
0
0
0
0
0
0
0
0
0
1.25
1.25
1.25
1.25
1.25
1.23944
1.20034
1.18331
1.16004
1.12387
1.07684
1.02879
1.00176
0.999418
0.999425
1.01313
1.00296
0.934644
0.94256
0.964456
0.546786
1.25
1.25
0
1.25
0
0
0
0
0
1.25
0
1.25
1.25
0
0
1.25
1.25
0
1.25
0
0
0
0
0
0
0
0
0
0
1.25
1.25
1.25
1.25
1.25
1.24756
1.21049
1.19369
1.1694
1.13136
1.08196
1.03122
1.00201
0.999337
1.00121
1.03013
1.01986
1.00069
0.942669
1.23673
0
1.25
1.25
0
0
0
0
0
1.25
0
0
0
0
0
1.25
1.25
0
0
0
0
0
0
0
0
0
0
0
0
0
0
1.25
1.25
1.25
1.25
1.25
1.25
1.22061
1.20423
1.17876
1.13896
1.08721
1.03381
1.0023
0.999293
1.00234
1.03278
1.02673
0.947402
0.938034
1.25
0
0
1.25
1.25
1.25
0
0
0
0
0
1.25
0
1.25
1.25
0
0
1.25
1.25
0
1.25
0
0
0
0
0
0
0
0
0
0
1.25
1.25
1.25
1.25
1.25
1.25
1.23039
1.21438
1.18776
1.14627
1.09242
1.0365
1.00264
0.999178
1.00499
1.05099
1.03722
1.04691
0.995698
1.25
0
0
1.25
0
0
0
0
0
1.25
0
0
0
0
0
1.25
1.25
0
0
0
0
0
0
0
0
0
0
0
0
0
0
1.25
1.25
1.25
1.25
1.25
1.25
1.24027
1.22448
1.19674
1.15356
1.09772
1.03937
1.00305
0.99911
1.00717
1.06823
1.03857
1.02881
0.88744
1.25
0
0
1.25
1.25
1.25
0
0
0
0
0
0
0
1.25
1.25
0
0
1.25
1.25
0
1.25
0
0
0
0
0
0
0
0
0
0
1.25
1.25
1.25
1.25
1.25
1.25
1.24965
1.23385
1.20502
1.16059
1.10277
1.04229
1.00352
0.99895
1.01047
1.09539
1.04555
1.07676
1.02992
1.25
0
0
1.25
0
1.25
0
0
0
1.25
0
0
0
0
0
0
1.25
0
0
0
0
0
0
0
0
0
0
0
0
0
1.25
1.25
1.25
1.25
1.25
1.25
1.25
1.25
1.24295
1.21333
1.16718
1.10781
1.0454
1.00407
0.998836
1.01348
1.12511
1.04592
1.13279
0.872137
1.25
1.25
0
1.25
1.25
1.25
0
0
0
0
0
0
0
1.25
1.25
0
0
1.25
1.25
0
1.25
0
0
0
0
0
0
0
0
0
1.25
1.25
1.25
1.25
1.25
1.25
1.25
1.25
1.25
1.22112
1.17309
1.11259
1.0485
1.00474
0.998587
1.01678
1.16956
1.06885
1.14352
1.09269
1.25
1.25
0
0
0
0
0
0
0
1.25
1.25
0
0
0
0
0
1.25
0
0
1.25
0
0
0
0
0
0
0
0
0
0
1.25
1.25
1.25
1.25
1.25
1.25
1.25
1.25
1.25
1.22845
1.17888
1.1173
1.05172
1.00556
0.998368
1.01982
1.206
1.08907
1.1631
1.24672
1.25
1.25
0
0
1.25
0
0
0
0
0
0
0
0
0
1.25
0
0
1.25
1.25
0
1.25
0
0
0
0
0
0
0
0
0
1.25
1.25
1.25
1.25
1.25
1.25
1.25
1.25
1.25
1.23439
1.18377
1.12142
1.05487
1.00653
0.997937
1.02221
1.25
1.09745
1.22213
1.2163
1.25
1.25
0
0
1.25
0
1.25
0
0
1.25
1.25
0
0
0
0
0
1.25
1.25
0
1.25
0
0
0
0
0
0
0
0
0
0
1.25
1.25
1.25
1.25
1.25
1.25
1.25
1.25
1.25
1.23997
1.18826
1.12533
1.05809
1.00772
0.997462
1.00907
1.25
1.06333
1.25
1.16557
1.25
1.25
0
0
1.25
0
0
0
0
0
0
0
0
0
1.25
1.25
0
0
1.25
0
1.25
0
0
0
0
0
0
0
0
0
1.25
1.25
1.25
1.25
1.25
1.25
1.25
1.25
1.25
1.24363
1.19137
1.12844
1.06106
1.00915
0.996596
1.00925
1.25
0.94448
1.25
0.946496
1.25
0
0
0
1.25
0
1.25
0
0
1.25
1.25
0
0
0
0
0
1.25
1.25
0
1.25
0
0
0
0
0
0
0
0
0
1.25
1.25
1.25
1.25
1.25
1.25
1.25
1.25
1.25
1.25
1.24717
1.19404
1.13112
1.06397
1.01089
0.99545
0.896509
1.25
0.72741
1.25
0.393013
1.25
1.25
0
1.25
1.25
0
0
0
0
0
0
0
0
0
1.25
1.25
0
0
1.25
0
0
0
0
0
0
0
0
0
0
1.25
1.25
1.25
1.25
1.25
1.25
1.25
1.25
1.25
1.25
1.24803
1.19484
1.13257
1.06634
1.01299
0.993469
0.821493
1.25
0.30285
1.25
0
1.25
1.25
0
0
1.25
0
1.25
0
0
1.25
1.25
0
0
1.25
0
0
1.25
1.25
1.25
1.25
1.25
0
0
0
0
0
0
0
0
1.25
1.25
1.25
1.25
1.25
1.25
1.25
1.25
1.25
1.25
1.24939
1.19526
1.13338
1.0684
1.01554
0.990787
0.471871
1.25
0
1.25
0
1.25
1.25
0
0
0
1.25
1.25
1.25
1.25
0
0
0
0
0
1.25
1.25
0
0
1.25
1.25
1.25
1.25
1.25
1.25
1.25
1.25
1.25
1.25
1.25
0
1.25
1.25
1.25
1.25
1.25
1.25
1.25
1.25
1.25
1.24133
1.18913
1.13002
1.06838
1.01841
0.986427
0.603942
1.25
0
1.25
0
1.25
1.25
0
0
0
1.25
1.25
1.25
0
1.25
1.25
0
0
1.25
0
0
1.25
1.25
1.25
1.25
1.25
1.25
1.25
1.25
1.25
1.25
1.25
1.25
1.25
0
0
0
1.25
1.25
1.25
1.25
1.25
1.25
1.25
1.22874
1.18108
1.12615
1.06815
1.02185
1.21935
1.00076
1.00159
1.00015
1.00006
0.999919
0.999338
0.999035
0.998974
0.998997
0.999139
0.999415
0.999818
1.00032
1.0009
1.00151
1.00213
1.00274
1.0032
1.00349
1.00372
1.00375
1.00369
1.00344
1.00286
1.00198
1.00079
0.999076
0.996819
0.993528
0.99312
1.03444
1.00633
1.00317
1.00271
1.00092
1.00083
1.00066
1.00049
1.00037
1.00031
1.00025
1.0002
1.00018
1.00016
1.00024
1.0001
1.00147
0.998791
1.20641
1.25
0.999817
1.00076
1.00132
1.00116
1.00174
1.00259
1.00307
1.00329
1.00343
1.00352
1.00356
1.00356
1.00354
1.00351
1.00346
1.00341
1.00336
1.0033
1.00327
1.00325
1.00308
1.00281
1.00257
1.00228
1.00199
1.00169
1.00133
1.00099
1.0012
1.00351
1.25
1.005
1.00096
1.0002
1.00129
1.00106
1.00105
1.00108
1.00105
1.00096
1.00087
1.00078
1.00069
1.00061
1.00054
1.00048
1.00104
0.999845
1.25
1.25
1.00005
1.00102
1.00119
1.00121
1.0017
1.00206
1.00227
1.00234
1.00233
1.00224
1.00209
1.00189
1.00167
1.00143
1.00119
1.00096
1.00072
1.00053
1.00041
1.00021
1.00016
1.00002
0.999935
0.999902
0.999918
0.999998
1.00011
1.00048
1.00104
1.00396
1.12534
1.00094
1.00007
0.999815
0.999822
0.999855
0.999874
0.999884
0.999884
0.999879
0.999876
0.999873
0.999878
0.99988
0.999962
0.999893
1.0009
0.999768
1.25
1.22054
1.00003
1.00091
1.0015
1.00177
1.00245
1.00299
1.00339
1.00366
1.0038
1.00385
1.00382
1.00373
1.0036
1.00345
1.00328
1.00309
1.0029
1.00272
1.00251
1.00231
1.00217
1.00209
1.00198
1.00188
1.00182
1.00179
1.00179
1.00204
1.0026
1.01125
1.00662
0.998157
0.997943
0.998172
0.998348
0.998528
0.998705
0.998878
0.999032
0.999167
0.999282
0.999383
0.999481
0.999558
0.999716
0.999621
1.00061
0.9995
1.20402
1.17533
1.00003
1.00087
1.00144
1.00183
1.00253
1.00305
1.00343
1.00368
1.0038
1.00382
1.00376
1.00366
1.00351
1.00335
1.00317
1.00299
1.00281
1.00263
1.00245
1.00232
1.00213
1.00199
1.00185
1.00171
1.0016
1.00151
1.00147
1.00155
1.00226
1.01148
1.00116
0.998621
0.998727
0.998893
0.99902
0.999147
0.999281
0.99941
0.999527
0.99963
0.999718
0.999791
0.999848
0.999888
0.999997
0.999887
1.00059
0.999689
1.16118
1.13904
1.00007
1.00087
1.00183
1.00237
1.00317
1.00379
1.0042
1.00445
1.00456
1.00456
1.00449
1.00436
1.00419
1.004
1.0038
1.0036
1.0034
1.00321
1.00302
1.00285
1.0027
1.00255
1.00241
1.00227
1.00216
1.00206
1.00208
1.00209
1.003
1.03604
0.997265
0.997356
0.99768
0.997928
0.998202
0.998456
0.998701
0.998926
0.999132
0.999311
0.999462
0.999589
0.999697
0.999779
0.99991
0.999786
1.00046
0.999731
1.12616
1.10938
1.00009
1.00095
1.00198
1.00264
1.00345
1.00406
1.00446
1.00468
1.00477
1.00475
1.00465
1.0045
1.00432
1.00411
1.0039
1.00369
1.00348
1.00328
1.00308
1.0029
1.00274
1.00258
1.00242
1.00227
1.00213
1.00199
1.00205
1.00191
1.00309
1.08452
0.997275
0.997279
0.997744
0.997979
0.998251
0.998501
0.998741
0.998965
0.999168
0.999346
0.999497
0.999622
0.999723
0.999795
0.999924
0.999827
1.00039
0.999771
1.09868
1.08595
1.00012
1.00106
1.00235
1.00315
1.00406
1.00469
1.0051
1.0053
1.00536
1.00531
1.00517
1.00499
1.00478
1.00455
1.00431
1.00408
1.00385
1.00364
1.00344
1.00325
1.00308
1.00291
1.00275
1.00258
1.00243
1.00227
1.00231
1.00213
1.00482
1.11106
0.996181
0.996702
0.997137
0.997464
0.997794
0.998115
0.998422
0.998709
0.998968
0.999193
0.999385
0.999542
0.999672
0.99977
0.999905
0.999786
1.00032
0.999803
1.07677
1.06723
1.00016
1.00122
1.00265
1.00357
1.00449
1.00513
1.00551
1.00569
1.00571
1.00562
1.00546
1.00525
1.00502
1.00477
1.00452
1.00427
1.00404
1.00382
1.00361
1.00341
1.00323
1.00306
1.00289
1.00272
1.00255
1.00242
1.00236
1.00222
1.00554
0.996512
0.995836
0.996535
0.996945
0.997294
0.997645
0.997981
0.998308
0.998616
0.998895
0.999139
0.999346
0.999517
0.999657
0.999755
0.999897
0.999818
1.00027
0.999832
1.05974
1.05257
1.00023
1.00144
1.00309
1.00412
1.00513
1.00577
1.00614
1.00628
1.00627
1.00614
1.00594
1.00569
1.00542
1.00515
1.00488
1.00461
1.00436
1.00413
1.00391
1.00371
1.00353
1.00335
1.00317
1.003
1.00279
1.00275
1.0024
1.00275
1.00957
0.990649
0.995075
0.99602
0.996446
0.996848
0.997248
0.997642
0.99803
0.998393
0.998723
0.999012
0.999256
0.999455
0.999617
0.999734
0.999887
0.999785
1.00023
0.999856
1.04638
1.04101
1.00032
1.00168
1.0035
1.00466
1.00568
1.00632
1.00665
1.00675
1.0067
1.00653
1.00629
1.00601
1.00572
1.00542
1.00513
1.00485
1.00458
1.00434
1.00411
1.00391
1.00371
1.00353
1.00335
1.00317
1.00295
1.00301
1.00258
1.00345
1.01328
0.988469
0.994285
0.995566
0.996016
0.996457
0.996899
0.997334
0.997764
0.998172
0.998547
0.998877
0.999156
0.999384
0.999569
0.999701
0.999864
0.999809
1.00018
0.999875
1.03602
1.03202
1.00043
1.00201
1.00405
1.00534
1.0064
1.00703
1.00733
1.00739
1.00728
1.00706
1.00678
1.00647
1.00614
1.00581
1.0055
1.0052
1.00493
1.00467
1.00444
1.00423