/*--------------------------------*- C++ -*----------------------------------*\
| =========                 |                                                 |
| \\      /  F ield         | OpenFOAM: The Open Source CFD Toolbox           |
|  \\    /   O peration     | Version:  2.1.0                                 |
|   \\  /    A nd           | Web:      www.OpenFOAM.org                      |
|    \\/     M anipulation  |                                                 |
\*---------------------------------------------------------------------------*/
FoamFile
{
    version     2.0;
    format      ascii;
    class       volScalarField;
    location    "10000";
    object      omega;
}
// * * * * * * * * * * * * * * * * * * * * * * * * * * * * * * * * * * * * * //

dimensions      [0 0 -1 0 0 0 0];

internalField   nonuniform List<scalar> 
15000
(
57589.2
16641.8
2837.57
430.202
7.60272
1.71169
1.13389
1.12272
1.0017
0.999982
0.999965
0.999959
0.999961
0.999963
0.99997
0.999996
0.999977
0.999969
0.999971
0.99997
0.999962
0.999973
0.999962
0.999964
1.00008
1.02336
1.01081
1.04175
1.02702
1.02831
1.01461
1.03036
1.03237
1.02026
1.02273
1.03767
1.03784
1.028
1.04394
1.03656
1.0439
1.05069
1.08096
1.08246
1.58605
22.7124
426.632
2852.69
16655
57587.6
63070.1
24845.1
7031.07
981.495
64.3356
1.74594
1.24759
1.11871
1.00097
0.999517
0.999731
1.00027
1.02735
0.999682
0.999807
0.999904
0.999773
0.999782
0.999809
0.999798
0.999642
0.99995
1.0002
1.0292
1.02652
1.05836
1.0894
1.04253
1.08799
1.0924
1.10309
1.10222
1.10751
1.12019
1.12697
1.13039
1.14141
1.15651
1.16214
1.17446
1.17549
1.19109
1.1654
1.32363
4.00758
63.6575
982.69
7038.95
24852.1
63070.1
60047.3
26087.5
9396.9
1955.75
171.406
9.29991
1.54206
1.1192
1.02814
1.04729
1.02419
1.0322
1.12407
1.02816
1.0178
1.00005
1.0209
1.02168
1.01889
1.02016
1.04117
0.999751
1.0011
1.10254
1.09746
1.13054
1.08715
1.04407
1.08968
1.0958
1.10132
1.10504
1.11003
1.11821
1.12514
1.1326
1.14179
1.15425
1.16323
1.17185
1.17519
1.19063
1.23473
1.30657
6.01746
165.518
1969.68
9406.03
26089.2
60054.9
55435.1
25648.6
10727.2
2852.64
352.832
14.668
1.69919
1.11818
1.09756
1.04876
1.09085
1.09848
1.12326
1.08772
1.08357
1.0433
1.07506
1.07452
1.07345
1.07101
1.04097
1.03187
1.02526
1.10228
1.09747
1.13046
1.08651
1.0441
1.08779
1.09576
1.10037
1.10494
1.10983
1.11724
1.12419
1.13216
1.14101
1.15309
1.16238
1.17017
1.18967
1.19052
1.25299
1.78716
23.262
357.342
2852.28
10731
25648.1
55442
51502.9
24728
11635.2
3673.07
549.924
41.1285
2.90731
1.14545
1.14631
1.05209
1.09092
1.10034
1.12061
1.08734
1.08238
1.06338
1.0748
1.07437
1.07315
1.07006
1.04043
1.03186
1.04558
1.10177
1.09776
1.13054
1.11707
1.0761
1.11709
1.12518
1.13105
1.13603
1.14238
1.14978
1.158
1.16695
1.17707
1.1897
1.18665
1.21739
1.2443
1.19375
1.27351
1.93638
32.6623
547.311
3684.3
11637.3
24724.5
51507.5
48500.9
24039.2
12323.9
4493.9
795.585
55.4165
3.45901
1.1522
1.25835
1.05416
1.11146
1.10093
1.11944
1.11321
1.12416
1.12779
1.10235
1.0878
1.1032
1.09453
1.04055
1.04603
1.09265
1.10149
1.09717
1.13001
1.1169
1.07636
1.116
1.12497
1.13073
1.13581
1.14214
1.14931
1.15751
1.16651
1.17659
1.18889
1.2164
1.21733
1.25349
1.1955
1.33508
3.68114
69.0453
800.371
4492.49
12323.1
24035
48503.1
46267.2
23766.8
12989.3
5311.87
1079.97
102.879
6.34287
1.23705
1.3212
1.06356
1.15979
1.10422
1.16251
1.1136
1.12403
1.12647
1.10294
1.12803
1.10274
1.09353
1.04181
1.08277
1.09325
1.12088
1.09863
1.14386
1.13273
1.09393
1.12694
1.14668
1.14241
1.15862
1.15595
1.17344
1.17219
1.16666
1.18984
1.18895
1.248
1.21903
1.28543
1.20309
1.36768
4.52738
90.5395
1079.7
5318.45
12988.7
23763.9
46268.1
44591.5
23433.4
13482.5
6171.65
1424.46
132.68
7.61504
1.26853
1.45402
1.06846
1.18732
1.10677
1.17528
1.115
1.14965
1.12659
1.1274
1.12781
1.12608
1.09017
1.04252
1.08277
1.09377
1.13556
1.1106
1.16016
1.14612
1.10779
1.15684
1.14678
1.17477
1.1589
1.17847
1.17361
1.1952
1.16757
1.21604
1.18996
1.26301
1.2206
1.28862
1.20636
1.50036
8.43419
146.02
1427.72
6169.54
13480.8
23431.3
44591.4
43286.4
22934.4
13769.6
6988.45
1850.98
208.115
12.5718
1.45623
1.51083
1.0842
1.2406
1.11474
1.22311
1.11828
1.16134
1.12669
1.12788
1.15008
1.12528
1.10663
1.04488
1.10061
1.09501
1.169
1.14058
1.18413
1.17767
1.14139
1.15663
1.16494
1.17447
1.17859
1.19848
1.17467
1.2169
1.17022
1.23283
1.19296
1.28227
1.22525
1.30883
1.21745
1.55776
10.8445
198.179
1851.89
6991.6
13769.2
22934.5
43286.1
42228.3
22301.9
13762
7695.09
2346.2
279.399
16.0876
1.57286
1.64343
1.09175
1.26654
1.1191
1.2336
1.12134
1.19177
1.12802
1.14879
1.14985
1.14453
1.10405
1.04609
1.1002
1.09649
1.17488
1.15209
1.19645
1.17798
1.1415
1.1559
1.16464
1.19169
1.17886
1.21778
1.17592
1.23315
1.17317
1.25135
1.19535
1.29027
1.22757
1.31065
1.22149
1.77784
18.129
289.077
2347.65
7693.34
13761
22300.2
42227.6
41336.5
21648.8
13644.3
8262.68
2899.83
403.606
26.0748
1.95287
1.63124
1.1119
1.31447
1.13034
1.27374
1.12744
1.20118
1.12859
1.14939
1.16887
1.14359
1.11738
1.04911
1.1148
1.09793
1.17462
1.1783
1.2223
1.17817
1.15821
1.17141
1.17966
1.19136
1.19589
1.23154
1.1969
1.24912
1.17756
1.26208
1.20033
1.3028
1.23328
1.3287
1.29995
1.90771
23.781
397.46
2901.57
8263.56
13643.9
21649.8
41336
40614.8
21037
13366.5
8659.7
3486.37
548.705
34.7303
2.21813
1.60321
1.12031
1.33512
1.13587
1.28253
1.13121
1.22502
1.13121
1.16833
1.16862
1.15997
1.11464
1.05049
1.11409
1.09929
1.17445
1.18886
1.22209
1.19302
1.15833
1.17105
1.17935
1.19929
1.19597
1.24943
1.19844
1.26266
1.18164
1.27566
1.20332
1.30777
1.23589
1.32604
1.35448
2.37459
37.8
555.301
3486.25
8658.44
13365.3
21035.3
40613.9
39890.7
20463.1
12939
8882.76
4057.83
752.623
56.0846
3.02753
1.5849
1.14592
1.38032
1.14903
1.31615
1.13907
1.23282
1.13222
1.16891
1.18501
1.1589
1.12564
1.05372
1.12641
1.10034
1.17465
1.21065
1.22189
1.19311
1.17277
1.17098
1.19179
1.21321
1.21099
1.25804
1.21784
1.27432
1.18688
1.28301
1.20915
1.31701
1.24184
1.32245
1.43804
2.79896
52.3881
749.072
4059.82
8882.87
12939.5
20464.5
39890.5
39276.7
19940.1
12480.2
8971.7
4604
987.028
75.3682
3.73537
1.56617
1.16632
1.37362
1.15499
1.32295
1.14302
1.25485
1.1357
1.18624
1.18469
1.17295
1.12286
1.0552
1.12548
1.10116
1.17501
1.22037
1.22167
1.20579
1.17289
1.18343
1.19157
1.22679
1.21142
1.27699
1.21954
1.28615
1.1914
1.29357
1.21222
1.32092
1.24416
1.31676
1.48659
3.95175
79.2187
991.148
4603.17
8971.03
12479.6
19938.4
39276
38734.4
19445.7
12074.9
8961.36
5085.83
1276.1
119.221
5.67034
1.56923
1.19412
1.36358
1.18104
1.34529
1.17392
1.24918
1.13719
1.18655
1.19892
1.17179
1.13205
1.05851
1.136
1.1021
1.17579
1.23837
1.22169
1.20578
1.18555
1.18338
1.2024
1.23782
1.22548
1.27479
1.23746
1.2943
1.19713
1.29893
1.21843
1.33046
1.27435
1.31393
1.5242
5.12012
112.884
1274.41
5087.94
8960.9
12074.7
19447.5
38734.3
38244.5
18991.8
11741.7
8914.57
5515.9
1592.09
156.722
7.44897
1.58239
1.20987
1.35452
1.18676
1.36145
1.17694
1.26136
1.14101
1.2024
1.19852
1.18408
1.1293
1.06002
1.13492
1.10297
1.17631
1.2473
1.22163
1.21665
1.18573
1.19447
1.20225
1.2501
1.22608
1.28398
1.23876
1.30551
1.20163
1.30782
1.22133
1.32768
1.29192
1.31399
1.58767
7.8967
162.951
1594.1
5514.52
8914.24
11741.4
18989.7
38243.8
37797.4
18570.6
11455.4
8816.32
5857.44
1949.39
237.926
11.9633
1.63466
1.23568
1.34669
1.21019
1.35373
1.20161
1.25608
1.14334
1.20247
1.21105
1.18285
1.13713
1.06336
1.14407
1.10385
1.17741
1.26262
1.22188
1.21657
1.19716
1.19445
1.21207
1.25832
1.23919
1.28218
1.25457
1.31119
1.20768
1.312
1.23605
1.32309
1.32957
1.31544
1.63811
10.7192
227.028
1949.3
5859.71
8815.66
11455
18572.6
37797.3
37385.8
18189.6
11199.5
8679.98
6119.06
2310.54
305.042
16.048
1.6977
1.24865
1.34125
1.21468
1.36153
1.20845
1.26642
1.14658
1.21692
1.2106
1.19374
1.13447
1.06476
1.1435
1.10475
1.17805
1.27078
1.22183
1.22613
1.19735
1.20469
1.21197
1.26991
1.23988
1.2905
1.25556
1.32408
1.21189
1.32189
1.25964
1.31978
1.34214
1.31929
1.76109
17.0756
314.008
2310.76
6118.4
8680.34
11199.5
18187.5
37385.2
37004.2
17839.5
10974.6
8528.45
6294.38
2678.58
426.66
25.5252
1.87638
1.2737
1.33495
1.23497
1.35569
1.23434
1.26166
1.1504
1.21682
1.22182
1.19247
1.14162
1.07969
1.14184
1.10558
1.17936
1.28409
1.22228
1.22599
1.2078
1.2047
1.22112
1.27564
1.25212
1.28906
1.26961
1.32142
1.21838
1.31749
1.27888
1.31741
1.37043
1.32282
1.88359
23.1376
418.213
2680.1
6295.37
8527.57
10974.2
17841.3
37004
36647.3
17525
10774.9
8358.59
6395.33
3029.45
540.145
33.8401
2.07321
1.28642
1.33233
1.23851
1.36336
1.24
1.27049
1.15269
1.23
1.22133
1.20217
1.13938
1.08088
1.15006
1.10642
1.18015
1.29151
1.22224
1.23451
1.20797
1.21442
1.2211
1.28868
1.25289
1.29676
1.27031
1.32846
1.22149
1.32342
1.29716
1.31544
1.37954
1.33082
2.19606
36.4103
547.495
3028.45
6394.92
8359.15
10775
17523.1
36646.7
36311.4
17234.2
10589.8
8209.3
6452.26
3355.92
697.866
52.1217
2.58437
1.31277
1.3269
1.25634
1.35896
1.26257
1.26648
1.16443
1.22978
1.23146
1.20088
1.14588
1.09148
1.14899
1.10728
1.1816
1.30323
1.22288
1.23431
1.2175
1.21449
1.22983
1.28728
1.26429
1.29561
1.28275
1.32632
1.2338
1.3211
1.31283
1.31556
1.40036
1.33701
2.52009
47.7156
691.299
3358.29
6452.73
8208.26
10589.5
17235.9
36311.5
35995.5
16972.1
10416.2
8069.03
6470.56
3656.6
850.862
66.6999
3.09262
1.32676
1.33927
1.25919
1.36648
1.26733
1.27433
1.16652
1.24188
1.23093
1.20955
1.14408
1.09819
1.15636
1.10808
1.18256
1.30995
1.22284
1.24201
1.21765
1.22381
1.22991
1.29392
1.26487
1.30284
1.28323
1.33324
1.24959
1.31873
1.32704
1.31615
1.40686
1.35157
3.32501
71.7405
856.85
3655
6470.52
8069.86
10416.2
16970.2
35994.5
35694.7
16727.7
10257.7
7939.4
6463.12
3921
1037.09
97.909
4.33534
1.35699
1.3369
1.27519
1.36367
1.28699
1.27072
1.17746
1.24153
1.24014
1.20827
1.15034
1.11322
1.15531
1.10896
1.1841
1.3204
1.22362
1.24177
1.2264
1.22393
1.23835
1.29266
1.27512
1.30192
1.2943
1.33157
1.26546
1.3156
1.3398
1.31705
1.42282
1.36359
4.08187
90.7041
1032.12
3923.6
6463.11
7938.22
10257.5
16729.5
35695.1
35411.1
16508.3
10109.7
7814.46
6441.63
4157.61
1218.38
120.648
5.4241
1.37795
1.34768
1.27752
1.37147
1.29085
1.27756
1.17937
1.2527
1.23958
1.21596
1.14911
1.11916
1.16199
1.10973
1.1852
1.32644
1.2236
1.24875
1.22652
1.23271
1.23836
1.29875
1.27555
1.30873
1.29462
1.33833
1.27845
1.31441
1.35135
1.31899
1.42788
1.39201
5.82011
126.977
1223.02
4156.08
6442.12
7815.53
10109.9
16506.5
35410
35139.6
16301.7
9973.24
7701.85
6403.46
4349.56
1421.16
168.641
7.9647
1.42877
1.34524
1.29203
1.36987
1.30947
1.27426
1.18953
1.25233
1.24795
1.21455
1.1553
1.13252
1.16098
1.11063
1.18681
1.33582
1.22445
1.24847
1.23456
1.23286
1.24613
1.29763
1.28477
1.30798
1.30449
1.33701
1.29229
1.31223
1.36205
1.32032
1.44096
1.4157
7.33047
159.715
1417.57
4351.98
6402.72
7700.58
9972.93
16303.3
35139.9
34883.3
16115.3
9844
7590.91
6353.48
4514.94
1611.85
200.547
9.94309
1.45945
1.35443
1.29396
1.37779
1.30841
1.28022
1.19126
1.26263
1.24736
1.22119
1.15474
1.13779
1.16705
1.11136
1.188
1.34124
1.22448
1.25483
1.23467
1.24092
1.24609
1.30326
1.28507
1.31439
1.30469
1.34356
1.30297
1.31997
1.37128
1.32299
1.44493
1.47097
10.6272
208.518
1615.29
4513.85
6354.3
7592.09
9844.3
16113.7
34882.1
34637.1
15937.7
9724.54
7491.78
6301.11
4641.45
1813.35
266.804
14.4375
1.54153
1.35279
1.30727
1.37643
1.32168
1.27729
1.20073
1.26223
1.25498
1.2196
1.16091
1.14971
1.16609
1.11227
1.18967
1.34971
1.22537
1.25453
1.24197
1.24106
1.25341
1.30226
1.29339
1.31378
1.31351
1.34251
1.31525
1.31988
1.38044
1.32461
1.45572
1.51734
13.2412
255.971
1811.16
4643.37
6300.16
7490.5
9724.21
15939.2
34637.1
34404.3
15776.8
9610.78
7393.53
6241.09
4743.95
2001.07
307.624
17.6597
1.60429
1.3618
1.30888
1.38407
1.32039
1.28258
1.2023
1.27175
1.25435
1.22541
1.16084
1.15438
1.17165
1.11297
1.19092
1.35454
1.22545
1.26032
1.24222
1.24801
1.25335
1.30748
1.29359
1.31979
1.31363
1.34877
1.32401
1.32791
1.38738
1.3277
1.45819
1.63299
18.8028
317.586
2003.64
4743.53
6242.2
7394.82
9611.25
15775.6
34402.8
34180.2
15622.2
9505.79
7307.31
6183.4
4816.68
2191.55
388.532
24.7498
1.76141
1.36144
1.32112
1.3829
1.33242
1.27998
1.21104
1.27133
1.2613
1.22355
1.16091
1.16506
1.17072
1.1139
1.19263
1.36222
1.22635
1.25999
1.24251
1.24813
1.26019
1.30661
1.30109
1.31926
1.32151
1.34797
1.33502
1.32808
1.39546
1.32945
1.46526
1.72489
22.8822
378.641
2190.62
4817.92
6182.32
7306.1
9505.51
15623.7
34179.8
33968.4
15481.9
9405.53
7221.45
6120.85
4870.66
2364.96
442.383
29.5946
1.88626
1.37055
1.32247
1.3902
1.3311
1.28475
1.21268
1.28014
1.26065
1.22875
1.16871
1.16922
1.17583
1.11457
1.19391
1.36652
1.22646
1.26526
1.24272
1.25425
1.26012
1.31146
1.30123
1.32487
1.32156
1.3539
1.34234
1.33606
1.40102
1.33277
1.46741
1.93933
31.4428
451.736
2367.07
4870.88
6122.29
7222.9
9406.22
15481.2
33966.3
33763.9
15346.2
9313.19
7147.79
6063.87
4905.34
2535.18
532.384
39.9528
2.18441
1.37143
1.33378
1.38918
1.34196
1.28234
1.21724
1.27966
1.26413
1.22793
1.16889
1.1788
1.17492
1.11549
1.19565
1.3735
1.22737
1.26491
1.24315
1.25428
1.26636
1.31069
1.30797
1.3244
1.3286
1.35329
1.35225
1.33645
1.40825
1.33454
1.4741
2.11174
37.2915
523.967
2535.44
4906.2
6062.74
7146.78
9313.15
15347.8
33762.5
33570.5
15222.7
9224.81
7072.35
6004.82
4927.31
2687.2
597.254
46.6752
2.4116
1.38159
1.33492
1.3962
1.34063
1.28699
1.23189
1.28794
1.26986
1.22563
1.17644
1.18253
1.17963
1.11613
1.19692
1.3773
1.22752
1.26971
1.24331
1.25972
1.26627
1.31517
1.30805
1.3296
1.3286
1.35882
1.35806
1.34427
1.4128
1.33802
1.47722
2.5132
49.4301
605.899
2689.35
4928.16
6006.65
7074.04
9225.8
15222.6
33567.3
33384
15102.5
9143.17
7006.01
5954.52
4941.14
2834.02
693.212
60.8098
2.93587
1.38442
1.34548
1.3953
1.35053
1.28512
1.23643
1.28766
1.27378
1.23015
1.17666
1.19125
1.17869
1.11706
1.1987
1.38367
1.22843
1.26936
1.24916
1.25977
1.27191
1.31449
1.31411
1.32917
1.33487
1.35825
1.36703
1.34477
1.41932
1.3397
1.48275
2.80996
57.2742
686.281
2835.55
4942.07
5953.52
7005.31
9143.62
15104.8
33380.8
33206.9
14993.4
9064.91
6938.08
5900.2
4944.54
2963.88
765.702
69.5794
3.30971
1.39638
1.34647
1.40212
1.3492
1.28971
1.24993
1.28744
1.28227
1.22923
1.18396
1.19463
1.18303
1.11767
1.19995
1.38701
1.22859
1.27375
1.2493
1.2648
1.27182
1.3186
1.31414
1.33392
1.33485
1.36326
1.37179
1.35221
1.42301
1.35023
1.4898
3.4817
73.4265
774.136
2966.76
4946.02
5902.53
6940.2
9066.38
14994
33202
33037.4
14885.9
8992.39
6879.17
5854.2
4942.55
3087.48
864.959
87.8162
4.14736
1.40195
1.35645
1.40132
1.35835
1.28829
1.25399
1.28723
1.28153
1.22836
1.1842
1.20267
1.18207
1.1186
1.20177
1.39286
1.22949
1.2734
1.25461
1.26479
1.27683
1.31798
1.31953
1.33359
1.33865
1.36263
1.37985
1.35277
1.4289
1.35177
1.49628
3.9472
83.4089
859.9
3090.56
4944.17
5853.5
6878.99
8993.72
14889.4
33030.8
32874.2
14789.5
8922.99
6818.17
5803.07
4935.91
3195.3
941.935
98.702
4.70752
1.41891
1.35732
1.40808
1.35693
1.29301
1.26608
1.28703
1.28588
1.22637
1.1913
1.20576
1.18611
1.11917
1.20297
1.39577
1.22967
1.27742
1.25473
1.26935
1.27684
1.32169
1.31953
1.33783
1.34215
1.36715
1.38373
1.35961
1.43183
1.36123
1.51112
4.97288
103.578
950.919
3199.83
4938.86
5806.16
6821.02
8925.29
14790.8
32866.5
32720.9
14692
8858.28
6765.84
5760.88
4927.22
3297.28
1041.82
121.151
5.93593
1.42829
1.36703
1.4076
1.36534
1.29221
1.26989
1.2922
1.28516
1.23079
1.19156
1.2133
1.18515
1.12011
1.20484
1.40117
1.23056
1.27709
1.25954
1.26919
1.28123
1.32113
1.32424
1.33751
1.35033
1.36675
1.39084
1.36019
1.43704
1.36266
1.51709
5.65008
116.357
1039.51
3302.45
4928.65
5760.8
6766.58
8860.98
14697.7
32709
32570.1
14606.8
8796.43
6710.85
5712.86
4910.07
3384.17
1120.38
134.099
6.71645
1.45244
1.36772
1.40711
1.36376
1.29729
1.28088
1.29212
1.28946
1.22978
1.19865
1.21616
1.18899
1.12065
1.20601
1.40367
1.23075
1.28078
1.25963
1.27321
1.28123
1.32441
1.32422
1.34117
1.3501
1.37075
1.39391
1.36628
1.43926
1.37095
1.5354
7.1005
139.611
1131.2
3391.29
4914.53
5716.99
6714.91
8800.24
14609.5
32557.5
32432
14517.6
8738.37
6663.99
5674.55
4897.01
3464.89
1218.08
160.499
8.40103
1.46695
1.37712
1.40607
1.37193
1.29698
1.2852
1.29727
1.28875
1.2343
1.19892
1.22344
1.188
1.12159
1.20795
1.40874
1.23162
1.28047
1.26395
1.27321
1.28519
1.32391
1.32825
1.34091
1.35404
1.37034
1.40112
1.36688
1.4444
1.37228
1.54676
8.03082
156.336
1220.04
3472.97
4899.77
5675.64
6666.2
8743.21
14526.4
32411.9
32293.2
14441.8
8682.63
6613.76
5629.85
4875.9
3532.26
1294.88
175.545
9.43058
1.50109
1.37779
1.41345
1.37027
1.30236
1.29203
1.29719
1.29315
1.23345
1.20622
1.22616
1.19176
1.1221
1.2091
1.41086
1.23181
1.28388
1.26403
1.27667
1.28517
1.32671
1.32821
1.34397
1.35381
1.37359
1.4007
1.37205
1.44385
1.37935
1.57355
9.9865
182.113
1309.69
3543.17
4882.43
5635.61
6619.75
8689.04
14447.3
32271.6
32168.8
14359.8
8630.3
6571.37
5594.9
4860.55
3595.09
1387.61
204.36
11.6107
1.52242
1.38759
1.41293
1.37864
1.30244
1.30354
1.30256
1.29246
1.23828
1.20649
1.2335
1.19074
1.12305
1.21114
1.41578
1.23266
1.28361
1.26791
1.27665
1.28863
1.32627
1.33155
1.34376
1.35698
1.37322
1.40392
1.37256
1.44537
1.38057
1.59672
11.2064
202.46
1396.5
3607.08
4865.45
5597.87
6575.91
8638.35
14373.3
32136.4
32042
14291.7
8579.57
6525.09
5553.01
4837.26
3644.42
1461.97
222.876
12.9115
1.57023
1.38834
1.42105
1.37692
1.30865
1.30347
1.30247
1.29723
1.23758
1.21437
1.23618
1.19268
1.12354
1.21231
1.41756
1.23286
1.28684
1.26797
1.27965
1.2886
1.32859
1.3315
1.34618
1.35676
1.37562
1.40372
1.37655
1.4466
1.38626
1.62862
13.7393
230.589
1484.01
3660.58
4846.7
5561.26
6534.08
8590.19
14302.2
32005.7
31929.7
14215.7
8532.23
6486.6
5520.99
4820.8
3691.36
1548.88
252.641
15.604
1.60032
1.39398
1.42055
1.38643
1.30872
1.30998
1.30833
1.29689
1.24306
1.21464
1.24411
1.19868
1.1245
1.21451
1.42265
1.23369
1.28663
1.27151
1.27961
1.29166
1.32821
1.33285
1.34596
1.35916
1.37531
1.40316
1.37696
1.44522
1.38744
1.6762
15.2856
254.219
1568.14
3709.18
4828.79
5526.87
6494.71
8545.13
14236.1
31879.2
31816
14153.7
8485.25
6443.7
5481.64
4796.28
3726.16
1618.68
273.915
17.2166
1.66665
1.41043
1.43004
1.38473
1.31576
1.30989
1.30816
1.29573
1.24251
1.22376
1.24697
1.19752
1.12501
1.21576
1.42417
1.23389
1.28994
1.27155
1.28235
1.29162
1.33013
1.33657
1.34781
1.35903
1.37686
1.4048
1.37966
1.44588
1.39114
1.71376
18.4656
284.508
1652.27
3749.71
4809.76
5493.62
6457.25
8502.4
14172.4
31756.3
31713.8
14083.3
8441.89
6408.62
5452.3
4779.41
3760.25
1698.07
304.053
20.2777
1.70768
1.41103
1.42959
1.39639
1.31582
1.31788
1.31497
1.30311
1.24925
1.22404
1.25623
1.19993
1.12598
1.2182
1.43006
1.23762
1.28978
1.27496
1.28232
1.29462
1.32982
1.33652
1.34767
1.35891
1.37658
1.40447
1.38001
1.4448
1.39351
1.78883
20.368
311.089
1732.56
3786.41
4791.77
5462.5
6422.06
8462.37
14113.2
31636.9
31614.3
14025.5
8398.36
6368.52
5415.17
4754.28
3783.55
1761.91
327.195
22.4463
1.79796
1.42511
1.44146
1.39465
1.32408
1.31774
1.31488
1.30219
1.24887
1.23546
1.2596
1.20776
1.12651
1.21962
1.43146
1.2421
1.2938
1.27497
1.28519
1.29457
1.33165
1.33641
1.34909
1.35864
1.37742
1.40524
1.38142
1.44467
1.39473
1.84255
24.252
343.366
1812.8
3817.11
4773.28
5432.62
6388.76
8424.68
14056.6
31520.2
31523.6
13960.4
8358.14
6336.23
5388.25
4737.38
3807.08
1832.56
356.989
25.6603
1.85149
1.4258
1.44101
1.40728
1.32459
1.32817
1.31467
1.31185
1.25786
1.23579
1.27164
1.20633
1.12755
1.22245
1.43956
1.24662
1.29373
1.27871
1.28515
1.29814
1.33143
1.33849
1.34898
1.36014
1.37719
1.4051
1.38204
1.44413
1.3977
1.94888
26.5362
372.713
1888.91
3844.74
4755.84
5404.74
6357.53
8389.36
14003.9
31406.1
31435.8
13905.5
8316.85
6298.39
5353.01
4712.03
3821.41
1889.56
381.031
28.3644
1.97064
1.44344
1.45688
1.41274
1.32456
1.32804
1.32821
1.3108
1.25759
1.24794
1.27602
1.21369
1.12812
1.22414
1.44107
1.25663
1.29354
1.27872
1.28898
1.2981
1.33401
1.33844
1.35062
1.36003
1.37791
1.4047
1.3823
1.44287
1.39907
2.02472
31.1887
406.874
1965.21
3868.13
4738.49
5378.27
6328.22
8356.47
13954
31293.9
31357.1
13844.8
8279.38
6268.67
5328.15
4695.32
3836.1
1950.62
409.683
31.6616
2.03743
1.44555
1.45659
1.43566
1.34405
1.34284
1.33561
1.31745
1.27053
1.255
1.2931
1.21195
1.12925
1.22757
1.45392
1.25779
1.29646
1.27873
1.28895
1.30345
1.33387
1.34138
1.35054
1.36238
1.37776
1.40547
1.38352
1.44263
1.40186
2.18013
33.8937
438.984
2037.43
3889.06
4722.13
5353.71
6300.85
8325.77
13907.7
31183.2
31281.3
13792.1
8239.44
6232.13
5294.42
4669.98
3843.5
2000.29
433.611
34.7959
2.18817
1.44648
1.46164
1.4442
1.35318
1.343
1.35284
1.33906
1.27051
1.28371
1.29939
1.21739
1.12989
1.22967
1.45594
1.25839
1.30692
1.27876
1.29211
1.30338
1.33625
1.34132
1.35214
1.3623
1.37872
1.40527
1.38371
1.44176
1.40388
2.28511
39.3999
475.069
2110.1
3907.1
4706.34
5330.68
6275.43
8297.49
13864.4
31073.5
31214.8
13734.6
8204.19
6204.94
5271.61
4653.38
3850.5
2051.22
460.26
38.106
2.2681
1.47849
1.46194
1.47837
1.3901
1.34329
1.38433
1.33839
1.29045
1.28466
1.32536
1.23913
1.1312
1.23413
1.47707
1.2587
1.31276
1.27883
1.29851
1.31274
1.34265
1.34726
1.35676
1.36748
1.38152
1.40825
1.38522
1.44257
1.40842
2.47987
42.5987
510.14
2179.07
3923.28
4691.54
5309.56
6251.95
8271.48
13824.5
30964.5
31151.5
13683.8
8164.92
6168.71
5238.71
4628.1
3852.64
2093.36
483.058
41.5133
2.45226
1.47885
1.46263
1.49203
1.40275
1.3805
1.38379
1.33631
1.29038
1.28537
1.33505
1.23644
1.13195
1.23672
1.48087
1.25928
1.33687
1.27894
1.31663
1.31264
1.34914
1.34716
1.36175
1.36747
1.38531
1.40811
1.3883
1.44217
1.41017
2.62605
49.0874
548.482
2248.79
3937.6
4677.71
5290.02
6230.4
8247.83
13787.7
30855.4
31094.2
13627.5
8131.13
6143.99
5217.94
4611.67
3852.23
2133.85
506.829
44.7292
2.54294
1.51866
1.46338
1.54173
1.45808
1.38016
1.38362
1.36618
1.29
1.28723
1.37564
1.26254
1.13355
1.26049
1.51514
1.26026
1.33648
1.2868
1.31647
1.32994
1.36351
1.35988
1.37326
1.36752
1.39402
1.41672
1.39941
1.44862
1.41382
2.8755
52.8756
586.897
2315.17
3950.6
4664.87
5272.43
6210.83
8226.61
13754.3
30745.9
31042.2
13578.8
8092.05
6107.34
5185.13
4586.2
3849.78
2168.21
527.481
48.2222
2.75809
1.51951
1.51806
1.56389
1.47719
1.4345
1.38286
1.36544
1.33019
1.28892
1.39149
1.2606
1.13473
1.28272
1.52347
1.26086
1.33601
1.31348
1.33879
1.32983
1.37646
1.35974
1.3842
1.36738
1.40335
1.41652
1.3993
1.44839
1.41598
3.07545
60.4117
628.115
2382.69
3962.82
4653.45
5256.24
6193.25
8207.73
13724.1
30635.4
31000.3
13522.4
8058.59
6084.49
5166.24
4569.89
3845.92
2198.24
547.563
51.2177
2.85493
1.57709
1.51931
1.63835
1.56108
1.43214
1.3834
1.41328
1.3285
1.29305
1.45391
1.25573
1.13733
1.33646
1.57481
1.26136
1.33566
1.33293
1.33867
1.36172
1.40477
1.38558
1.40863
1.39188
1.42419
1.43672
1.4186
1.46568
1.42056
3.41379
65.1787
670.808
2447.1
3974.46
4642.96
5241.67
6177.66
8191.51
13700.2
30524.1
30961.9
13475.1
8019.69
6047.22
5133.01
4544.1
3838.1
2224.6
565.05
54.5748
3.05379
1.57812
1.60338
1.67385
1.59256
1.51315
1.38409
1.41279
1.39283
1.29652
1.4805
1.25221
1.13939
1.37349
1.59273
1.26143
1.33582
1.3823
1.35899
1.36162
1.42919
1.38541
1.43053
1.3917
1.44405
1.43632
1.41841
1.46522
1.42584
3.74486
74.8772
715.952
2512.57
3985.75
4634.16
5228.6
6164.22
8178.56
13681.1
30411.3
30941.5
13418.1
7985.57
6025.34
5115.39
4527.69
3829.35
2244.24
580.742
57.2192
3.24243
1.66505
1.60597
1.78448
1.66792
1.50738
1.38552
1.45059
1.39116
1.30464
1.57076
1.24377
1.14391
1.45834
1.67155
1.26323
1.39094
1.41757
1.41168
1.4182
1.48208
1.43454
1.47842
1.43901
1.48738
1.47751
1.45867
1.50254
1.45135
4.36767
81.2369
763.532
2575.34
3996.82
4626.11
5217.29
6152.92
8168.42
13668.6
30296.2
30914.3
13371.5
7946.55
5987.54
5081.66
4501.3
3818.21
2262.18
594.101
60.2014
3.3345
1.66577
1.69479
1.8417
1.81871
1.59417
1.38962
1.58305
1.3851
1.31116
1.61698
1.3204
1.1477
1.51919
1.70611
1.26438
1.39255
1.49074
1.45863
1.41834
1.52561
1.43449
1.51891
1.4389
1.52545
1.47673
1.45828
1.50184
1.4928
4.92957
94.1303
813.368
2639.51
4007.99
4620.05
5207.55
6143.85
8161.8
13659.6
30178.8
30910.5
13313.1
7911.14
5965.56
5064.4
4484.67
3804.65
2271.82
604.89
62.3796
3.63539
1.79572
1.77865
2.00945
1.81321
1.66188
1.39738
1.5812
1.49361
1.32419
1.75531
1.31568
1.1567
1.65268
1.82687
1.26702
1.44272
1.57329
1.55992
1.51516
1.61912
1.52214
1.60625
1.52413
1.60752
1.55321
1.53376
1.57484
1.6055
6.04211
102.585
866.512
2701.38
4019.3
4614.56
5199.73
6137.05
8157.96
13658.1
30057.4
30899.3
13266.4
7871.51
5927.45
5030.14
4457.4
3790.51
2280.77
613.268
64.7289
3.71318
1.80059
2.04437
2.09441
1.81509
1.90764
1.40316
1.65459
1.48849
1.34057
1.82873
1.30464
1.16669
1.74744
1.888
1.27031
1.54513
1.67202
1.63769
1.51616
1.69265
1.52273
1.67632
1.52447
1.67473
1.5519
1.53285
1.5741
1.63305
6.93302
119.578
921.863
2764.89
4030.99
4611.43
5193.49
6132.52
8158.52
13660
29933.4
30910.6
13206.2
7834.36
5904.5
5012.69
4440.25
3772.78
2280.71
618.799
66.1438
4.04164
1.93644
2.05759
2.32541
1.8187
1.89684
1.49871
1.90417
1.48251
1.35995
2.02645
1.2998
1.19005
1.94831
2.05431
1.27911
1.71794
1.83175
1.80362
1.67585
1.84966
1.67125
1.82609
1.66976
1.81885
1.68486
1.66463
1.70418
1.78784
8.70064
130.962
981.281
2826.45
4043.25
4608.64
5189.35
6130.47
8160.93
13665.3
29803.8
30916.6
13158.5
7793.6
5866.14
4977.72
4412.06
3755.32
2278.26
621.651
67.8819
4.10084
2.06194
2.06742
2.45214
1.82246
1.88738
1.77744
1.88964
1.47066
1.39265
2.13852
1.29004
1.2106
2.09252
2.18732
1.2903
1.8638
1.97177
1.92698
1.6789
1.96796
1.67363
1.94069
1.67157
1.92926
1.68279
1.66307
1.70341
1.86278
10.2295
152.694
1043
2889.87
4056.06
4608.69
5186.73
6131.13
8166.17
13671.1
29671.3
30943.9
13095.9
7754.42
5841.6
4959.83
4393.79
3733.99
2270.85
620.981
68.3943
4.40059
2.35839
2.09279
2.77071
1.82565
1.8887
1.95764
2.1597
1.72401
1.42247
2.40673
1.28924
1.26952
2.48142
2.35357
1.31664
2.14314
2.23802
2.18896
1.93283
2.22009
1.9142
2.18414
1.91123
2.25248
1.90118
1.88006
1.91937
1.97137
13.3432
168.716
1109.41
2951.55
4070.02
4609.71
5187.11
6133.58
8175.23
13678.1
29536.5
30967.7
13046.8
7712.05
5802.97
4924.31
4364.83
3712.66
2261.17
618.57
69.4628
4.62894
2.52223
2.11723
2.95763
1.82773
1.8999
2.38754
2.14368
1.70375
1.48168
2.59248
1.29004
1.29565
2.51073
2.74715
1.34254
2.35659
2.44618
2.37527
1.94008
2.40062
1.92053
2.36241
1.91445
2.24248
1.89821
1.88039
1.91849
2.14704
15.7482
195.998
1178.3
3014.98
4084.96
4612.19
5188.83
6138.83
8188.18
13691.3
29397.9
31011.6
12981.3
7670.63
5776.42
4904.79
4345.04
3688.35
2241.27
612.505
69.4052
5.14616
2.90376
2.17079
3.3363
1.83316
2.12494
2.64536
2.54085
2.07404
1.52909
2.8977
1.29917
1.7338
2.52078
2.68728
1.40102
2.78163
2.86518
2.90743
2.33717
2.91756
2.29479
2.74023
2.28139
2.5775
2.22335
1.88625
2.24144
2.3618
20.6627
217.917
1252.45
3077
4101.38
4617.14
5192.71
6147.7
8205.3
13709.4
29254.8
31054
12930.3
7626.36
5737.43
4869.35
4315.28
3662.55
2223.01
606.031
69.1136
5.42683
3.11889
2.21985
3.72345
1.86326
2.90984
3.1986
2.5107
2.03987
1.62976
3.28696
1.30867
1.74928
2.54432
3.04013
1.45191
3.09108
3.16896
2.87748
2.34751
2.89247
2.30839
3.00291
2.28351
2.5697
2.20631
1.89076
2.25079
2.73886
24.3482
252.03
1329.27
3141.07
4118.84
4623.79
5199.18
6159.62
8227.01
13738.3
29106.2
31114.9
12861.3
7582.45
5708.53
4847.32
4293.88
3635.44
2193.47
593.353
68.19
6.23264
3.60908
2.32327
4.12925
1.89686
2.95025
3.65577
2.85432
2.57266
1.70425
3.60314
1.33927
2.37756
3.11956
2.96156
1.58732
3.92908
3.77439
3.38103
2.92046
3.39465
2.87966
3.7439
2.82039
3.06899
2.67288
1.90025
2.26885
3.15329
31.8942
281.209
1411.85
3204.31
4137.65
4632.8
5208.35
6174.95
8253.59
13776
28947.4
31176.4
12808.1
7536.05
5669.12
4812.28
4263.17
3604.83
2164.56
581.606
67.6818
6.21869
3.89823
2.40039
4.76539
1.92688
3.39229
4.26612
3.29543
2.54149
1.88312
4.39811
1.36295
2.40506
3.13873
3.48586
1.66393
3.93796
4.19827
3.33839
2.92772
3.37062
2.89814
3.70144
2.82082
3.05899
2.63322
1.90636
2.2964
3.92747
37.4119
323.602
1497.14
3269.56
4157.54
4643.44
5219.6
6193.13
8284.34
13819.3
28781.9
31254.2
12735.3
7489.58
5637.75
4787.53
4240.05
3574.87
2126.32
564.638
65.8578
6.24712
4.82572
3.37405
5.22891
2.0608
4.69552
5.10939
4.45269
2.47727
1.98632
4.21364
1.43947
3.28662
3.93162
3.37403
1.85163
4.72873
5.05369
4.05767
3.72296
4.09579
3.69782
4.41165
3.52193
3.06525
3.29092
1.91931
2.35041
4.69461
48.9473
361.607
1588.57
3334.15
4178.88
4656.56
5233.78
6215.08
8320.31
13870.4
28605.8
31335.2
12679.7
7440.9
5597.87
4752.91
4208.25
3539.05
2086.72
548.26
64.9421
6.25277
4.71634
3.48024
6.42607
2.13159
4.772
5.82851
4.2926
2.42156
2.17546
4.90753
1.49804
3.32188
3.9365
4.11689
1.94036
4.78602
5.60952
4.023
3.7265
4.07419
3.71357
4.39779
3.49793
3.0754
3.25261
1.9285
2.41966
6.18575
56.5586
413.81
1684.5
3398.74
4201.4
4671.43
5250.23
6240.13
8360.76
13927
28422.7
31430
12602.6
7391.91
5564.04
4725.31
4183.4
3506.11
2039.78
527.755
62.5018
6.31346
5.77785
4.80583
6.17469
2.34297
6.09291
7.06729
5.16683
2.41298
2.3665
4.68212
1.64935
4.50155
4.98951
3.95526
2.17842
5.95613
6.74196
5.03211
4.73224
4.09673
4.74966
4.36328
3.45618
3.08474
3.1955
1.94779
2.56015
7.51506
72.1198
462.477
1786.83
3462.57
4225.52
4688.95
5269.86
6269.35
8406.87
13991.3
28228.7
31532
12544.6
7340.86
5523.62
4691.22
4150.35
3464.6
1989.7
507.657
60.4608
6.34666
5.70783
4.87629
6.82136
2.44587
6.23279
7.91446
4.87191
2.41573
2.51644
5.65421
1.81643
4.53037
4.97796
4.96606
2.29795
6.0733
7.45768
5.00079
4.68403
4.13467
4.74069
4.31761
3.41258
3.08877
3.11628
1.96295
2.70887
10.1334
83.1044
526.231
1893.28
3526.32
4250.95
4708.34
5291.93
6301.89
8457.77
14060.8
28027.7
31644.6
12462.9
7289.45
5487.49
4660.74
4123.78
3428.36
1934.27
484.451
59.1015
6.43249
7.33797
6.45114
7.65044
2.71802
8.18291
10.0866
5.53037
2.4666
4.23893
5.37799
2.00855
6.06191
6.34756
4.7337
2.6007
7.79263
9.24002
5.04
5.93397
4.1797
4.72909
4.26072
3.37612
3.08757
3.05962
1.99994
3.67129
12.3576
105.346
587.479
2005.78
3589.4
4278.18
4730.56
5317.46
6339.03
8514.77
14137.9
27815.4
31767.9
12402.4
7236.07
5446.47
4627.22
4089.2
3380.72
1873.9
462.192
56.2972
7.51286
7.3162
6.77077
9.80649
2.91971
8.32613
9.93936
6.40399
2.52111
4.40944
6.81916
3.93888
6.06975
6.32735
6.05799
2.82419
7.88488
8.9313
5.10204
5.86697
4.21706
4.70582
4.20362
3.34028
3.08093
2.98183
2.06079
4.80949
16.7518
121.151
664.388
2121.8
3652.39
4306.92
4754.8
5345.61
6379.73
8576.87