/*--------------------------------*- C++ -*----------------------------------*\
| =========                 |                                                 |
| \\      /  F ield         | OpenFOAM: The Open Source CFD Toolbox           |
|  \\    /   O peration     | Version:  1.7.x                                 |
|   \\  /    A nd           | Web:      www.OpenFOAM.com                      |
|    \\/     M anipulation  |                                                 |
\*---------------------------------------------------------------------------*/
FoamFile
{
    version     2.0;
    format      ascii;
    class       scalarField;
    location    "0.006/lagrangian/reactingCloud1";
    object      cp;
}
// * * * * * * * * * * * * * * * * * * * * * * * * * * * * * * * * * * * * * //


25
(
4188.3998
4188.3968
4188.3938
4188.3893
4188.3948
4188.3971
4188.3923
4188.3922
4188.3935
4188.3897
4188.3989
4188.3916
4188.3919
4188.3906
4188.3934
4188.4009
4188.3985
4188.3939
4188.3935
4188.3943
4188.399
4188.3964
4188.3971
4188.3968
4188.3993
)


// ************************************************************************* //
