/*--------------------------------*- C++ -*----------------------------------*\
| =========                 |                                                 |
| \\      /  F ield         | OpenFOAM: The Open Source CFD Toolbox           |
|  \\    /   O peration     | Version:  1.7.x                                 |
|   \\  /    A nd           | Web:      www.OpenFOAM.com                      |
|    \\/     M anipulation  |                                                 |
\*---------------------------------------------------------------------------*/
FoamFile
{
    version     2.0;
    format      ascii;
    class       scalarField;
    location    "0.006/lagrangian/reactingCloud1";
    object      d;
}
// * * * * * * * * * * * * * * * * * * * * * * * * * * * * * * * * * * * * * //


25
(
9.965075e-05
9.965093e-05
9.9651052e-05
9.9651321e-05
9.9651131e-05
9.9650862e-05
9.9651075e-05
9.9651084e-05
9.965103e-05
9.9651219e-05
9.9650729e-05
9.9651096e-05
9.965108e-05
9.9651162e-05
9.9650978e-05
9.9650607e-05
9.9650734e-05
9.9650998e-05
9.9651021e-05
9.9650944e-05
9.9650708e-05
9.9650862e-05
9.9650839e-05
9.9650854e-05
9.9650733e-05
)


// ************************************************************************* //
