/*--------------------------------*- C++ -*----------------------------------*\
| =========                 |                                                 |
| \\      /  F ield         | OpenFOAM: The Open Source CFD Toolbox           |
|  \\    /   O peration     | Version:  1.7.x                                 |
|   \\  /    A nd           | Web:      www.OpenFOAM.com                      |
|    \\/     M anipulation  |                                                 |
\*---------------------------------------------------------------------------*/
FoamFile
{
    version     2.0;
    format      ascii;
    class       Cloud<passiveParticle>;
    location    "0.006";
    object      positions;
}
// * * * * * * * * * * * * * * * * * * * * * * * * * * * * * * * * * * * * * //

25
(
(0.0019842937 0.0019674483 0.009255969) 166013
(0.0039919257 0.0019651033 0.0092530633) 166361
(0.0059923363 0.0019820007 0.0092372788) 166360
(0.0080050694 0.0019970094 0.0091954075) 166708
(0.0099986352 0.001982863 0.0092161486) 166707
(0.0019884839 0.0039733713 0.0092298819) 166362
(0.0039892963 0.0039712068 0.0092400122) 166709
(0.0059869532 0.0039758499 0.0092352784) 166709
(0.0080013215 0.0039876954 0.0092210967) 167056
(0.010006804 0.0039843219 0.0092197916) 167404
(0.0019895497 0.0059963876 0.0092432053) 166710
(0.0039933097 0.005975582 0.0092319522) 167057
(0.0059935442 0.0059683794 0.0092331945) 167057
(0.0080004576 0.0059810357 0.0092241456) 167404
(0.010012039 0.0059837645 0.0092175242) 167752
(0.0019920956 0.0079975976 0.009243141) 167058
(0.0039901656 0.0079908503 0.0092411097) 167406
(0.0059926537 0.0079763289 0.0092368749) 167753
(0.0079962952 0.0079797736 0.0092344818) 167753
(0.010017236 0.0079867181 0.0092285511) 168100
(0.001992233 0.009994392 0.0092565148) 167754
(0.0039905294 0.0099946807 0.0092354173) 167754
(0.0059891568 0.0099878155 0.0092522068) 168101
(0.0079982636 0.0099780633 0.0092537355) 168101
(0.010011652 0.0099899177 0.0092435042) 168448
)


// ************************************************************************* //
