/*--------------------------------*- C++ -*----------------------------------*\
| =========                 |                                                 |
| \\      /  F ield         | OpenFOAM: The Open Source CFD Toolbox           |
|  \\    /   O peration     | Version:  1.7.x                                 |
|   \\  /    A nd           | Web:      www.OpenFOAM.com                      |
|    \\/     M anipulation  |                                                 |
\*---------------------------------------------------------------------------*/
FoamFile
{
    version     2.0;
    format      ascii;
    class       scalarField;
    location    "0.006/lagrangian/reactingCloud1";
    object      T;
}
// * * * * * * * * * * * * * * * * * * * * * * * * * * * * * * * * * * * * * //


25
(
294.31486
294.3175
294.3202
294.32419
294.31931
294.31724
294.32148
294.32159
294.32043
294.32386
294.31565
294.32213
294.32189
294.323
294.32055
294.31387
294.31597
294.32012
294.32044
294.31978
294.31557
294.31786
294.31727
294.31748
294.31532
)


// ************************************************************************* //
