/*--------------------------------*- C++ -*----------------------------------*\
| =========                 |                                                 |
| \\      /  F ield         | OpenFOAM: The Open Source CFD Toolbox           |
|  \\    /   O peration     | Version:  1.7.x                                 |
|   \\  /    A nd           | Web:      www.OpenFOAM.com                      |
|    \\/     M anipulation  |                                                 |
\*---------------------------------------------------------------------------*/
FoamFile
{
    version     2.0;
    format      ascii;
    class       vectorField;
    location    "0.006/lagrangian/reactingCloud1";
    object      U;
}
// * * * * * * * * * * * * * * * * * * * * * * * * * * * * * * * * * * * * * //


25
(
(-0.00013910541 0.0040766849 5.1987685)
(0.010503194 0.010723957 5.1751013)
(0.0098835415 0.027805996 5.1559677)
(0.021955798 0.045352732 5.1280082)
(0.02842981 0.037002507 5.1412445)
(0.005900875 0.032071041 5.1834549)
(0.0042384881 0.032836049 5.1702926)
(0.0036864579 0.03589415 5.1641966)
(0.024636641 0.045090303 5.1481165)
(0.033782623 0.043100927 5.1444842)
(0.0096041127 0.054338393 5.1891239)
(0.011048234 0.035427747 5.1634725)
(0.015247331 0.036833744 5.15893)
(0.021634188 0.046286447 5.1502652)
(0.03667528 0.041935943 5.1446507)
(0.0099891349 0.049955042 5.2033632)
(0.011833279 0.051708543 5.1791942)
(0.015570171 0.0458129 5.1664324)
(0.023726504 0.043860274 5.159179)
(0.042266328 0.039420744 5.1441701)
(0.012945982 0.047749151 5.204512)
(0.012868768 0.050986911 5.1812548)
(0.022275944 0.053501224 5.181023)
(0.033115409 0.040354042 5.1745066)
(0.038596166 0.042221866 5.1650744)
)


// ************************************************************************* //
