/*--------------------------------*- C++ -*----------------------------------*\
| =========                 |                                                 |
| \\      /  F ield         | OpenFOAM: The Open Source CFD Toolbox           |
|  \\    /   O peration     | Version:  1.7.x                                 |
|   \\  /    A nd           | Web:      www.OpenFOAM.com                      |
|    \\/     M anipulation  |                                                 |
\*---------------------------------------------------------------------------*/
FoamFile
{
    version     2.0;
    format      ascii;
    class       volScalarField;
    location    "0.006";
    object      alphat;
}
// * * * * * * * * * * * * * * * * * * * * * * * * * * * * * * * * * * * * * //

dimensions      [1 -1 -1 0 0 0 0];

internalField   nonuniform List<scalar> 
206988
(
3.0666673e-05
3.8895317e-05
1.2276102e-05
3.5535618e-06
7.1041874e-07
1.154617e-07
2.7422664e-08
1.6564379e-08
1.4891665e-08
1.497605e-08
1.4701019e-08
1.5301466e-08
1.5452759e-08
1.5416503e-08
1.5420179e-08
1.5558212e-08
1.1904905e-08
3.6628084e-07
3.0533907e-06
1.5813731e-05
2.8954306e-05
3.2756359e-05
8.4707554e-06
2.1542292e-06
3.9942153e-07
6.9844142e-08
2.2710389e-08
1.6776139e-08
1.6346038e-08
1.5399867e-08
1.5789588e-08
1.5265279e-08
1.5487022e-08
1.5117445e-08
1.5392138e-08
1.4918063e-08
1.4736499e-08
2.9675709e-07
5.8755946e-06
1.8783244e-05
2.416341e-05
2.1084331e-05
4.8443701e-06
9.6345092e-07
1.6771592e-07
3.5448246e-08
1.9939176e-08
1.6567369e-08
1.8398947e-08
1.5454753e-08
1.7494262e-08
1.5101191e-08
1.605584e-08
1.5066944e-08
1.5322411e-08
1.455577e-08
1.4167258e-08
2.3445129e-07
5.07986e-06
1.9282938e-05
1.9972962e-05
1.1349396e-05
2.2315698e-06
3.4830255e-07
6.2475037e-08
2.3125943e-08
1.9136987e-08
1.7195255e-08
1.8848289e-08
1.5335598e-08
1.8078158e-08
1.4683855e-08
1.6411504e-08
1.4638843e-08
1.5457756e-08
1.4080492e-08
1.3443683e-08
1.497202e-07
6.4654358e-06
2.0057712e-05
1.7171712e-05
6.6533877e-06
8.7414179e-07
1.1973967e-07
3.2642468e-08
2.0425796e-08
2.1146979e-08
1.761084e-08
2.1795661e-08
1.4822235e-08
2.2193159e-08
1.3900985e-08
1.7451457e-08
1.396082e-08
1.5476315e-08
1.3987226e-08
1.3266445e-08
8.4345658e-08
5.9650526e-06
2.0161568e-05
1.50431e-05
3.6321017e-06
3.0369536e-07
4.622412e-08
2.4302389e-08
1.9979464e-08
2.2244818e-08
1.80649e-08
2.1957627e-08
1.4093879e-08
2.4546066e-08
1.4292605e-08
1.8055015e-08
1.3244798e-08
1.6392403e-08
1.4154484e-08
1.6240622e-08
1.0851442e-07
5.9272587e-06
2.0083918e-05
1.3867308e-05
2.6975566e-06
1.3203997e-07
2.8862195e-08
2.294554e-08
2.1430921e-08
2.1836232e-08
1.9624684e-08
2.0398387e-08
1.8047284e-08
1.8138154e-08
1.5229137e-08
1.8197668e-08
1.4986865e-08
1.5486297e-08
1.431243e-08
2.3000933e-08
1.9908996e-07
6.4066986e-06
2.053678e-05
1.3009805e-05
2.0143045e-06
7.4858075e-08
2.573362e-08
2.351067e-08
2.3336887e-08
2.2300987e-08
2.2369322e-08
2.0186719e-08
1.9863003e-08
1.8384328e-08
1.7639028e-08
1.7514573e-08
1.6998612e-08
1.6448623e-08
1.6092468e-08
2.0936978e-08
1.53348e-07
5.8881499e-06
2.0549089e-05
1.1968647e-05
1.840107e-06
6.1350423e-08
2.5197741e-08
2.3837345e-08
2.4057454e-08
2.2297335e-08
2.3036859e-08
2.0430273e-08
2.0069397e-08
1.8996018e-08
1.8949506e-08
1.712927e-08
1.7822216e-08
1.6247231e-08
1.6641159e-08
2.1839486e-08
1.6328622e-07
4.8707684e-06
1.953588e-05
1.1276059e-05
1.6647494e-06
5.8793629e-08
2.660693e-08
2.5196487e-08
2.5353654e-08
2.3475506e-08
2.3468462e-08
2.1606189e-08
2.1419191e-08
1.9437073e-08
1.9905939e-08
1.6993683e-08
1.8453607e-08
1.6321125e-08
1.7206829e-08
1.9418483e-08
1.3804005e-07
4.3821306e-06
1.8924708e-05
1.0783556e-05
1.4614934e-06
5.364625e-08
2.8347016e-08
2.7036243e-08
2.7022475e-08
2.5723062e-08
2.4637479e-08
2.3991864e-08
2.3343513e-08
1.9572671e-08
2.188042e-08
1.7496424e-08
1.9816271e-08
1.6941478e-08
1.8283913e-08
1.9226573e-08
9.8536754e-08
3.8234201e-06
1.8382219e-05
1.0130646e-05
1.3305458e-06
5.0392542e-08
3.0063597e-08
2.9406436e-08
2.8673611e-08
2.7938773e-08
2.6890246e-08
2.5223512e-08
2.6661658e-08
1.9422145e-08
2.4848623e-08
1.8249876e-08
2.1597025e-08
1.7705927e-08
1.9480807e-08
1.9956144e-08
1.1368357e-07
3.3260941e-06
1.7511724e-05
9.486743e-06
1.2358955e-06
4.8427997e-08
3.1027288e-08
3.1255431e-08
2.9759549e-08
2.9047594e-08
2.9150587e-08
2.5186879e-08
2.8537129e-08
2.1256164e-08
2.7052755e-08
1.9200006e-08
2.3017538e-08
1.8475747e-08
2.0557326e-08
2.0017701e-08
1.1063969e-07
3.2166863e-06
1.6664658e-05
9.1508552e-06
1.2479959e-06
5.1464585e-08
3.3586283e-08
3.2300284e-08
3.2500417e-08
2.958797e-08
3.1754697e-08
2.588359e-08
3.1634269e-08
2.1867824e-08
2.7366953e-08
2.0555217e-08
2.3659864e-08
1.9719682e-08
2.1555257e-08
2.2695531e-08
1.2300837e-07
2.7678228e-06
1.5878576e-05
8.7187334e-06
1.1755084e-06
5.2904735e-08
3.6472564e-08
3.4117984e-08
3.5575327e-08
3.1428097e-08
3.4593838e-08
2.7967658e-08
3.3600158e-08
2.3599079e-08
2.8979265e-08
2.2435769e-08
2.4834748e-08
2.1236432e-08
2.2841825e-08
2.5090853e-08
1.6339746e-07
3.356666e-06
1.5408239e-05
8.1524211e-06
1.1193239e-06
5.3206854e-08
3.7791984e-08
3.5474525e-08
3.6955177e-08
3.2882197e-08
3.5533597e-08
2.9456678e-08
3.484037e-08
2.5035073e-08
3.0193243e-08
2.3641604e-08
2.6187598e-08
2.2359026e-08
2.4229299e-08
2.5493691e-08
1.5519073e-07
3.26942e-06
1.5011093e-05
7.7734123e-06
1.0945629e-06
5.667942e-08
3.9993021e-08
3.7556231e-08
3.8876314e-08
3.50082e-08
3.7296312e-08
3.1418422e-08
3.6110484e-08
2.698824e-08
3.1225669e-08
2.5199276e-08
2.7232172e-08
2.4004866e-08
2.5160117e-08
2.7764164e-08
1.7700871e-07
3.3659817e-06
1.4605331e-05
7.3537888e-06
9.9831349e-07
5.7466446e-08
4.3029168e-08
4.0635474e-08
4.1653046e-08
3.7678485e-08
4.0197829e-08
3.3870268e-08
3.8534568e-08
2.9166753e-08
3.32064e-08
2.7362826e-08
2.9037212e-08
2.5786335e-08
2.6768437e-08
2.8582952e-08
1.6793886e-07
3.4783817e-06
1.4206516e-05
6.7833773e-06
9.309539e-07
5.6697079e-08
4.4401706e-08
4.2077685e-08
4.2961446e-08
3.9188661e-08
4.1746367e-08
3.5256197e-08
4.0367075e-08
3.0525716e-08
3.5202133e-08
2.8747069e-08
3.1011691e-08
2.7115045e-08
2.8250027e-08
2.9381831e-08
1.5115264e-07
3.1645825e-06
1.3551741e-05
6.0935791e-06
9.00181e-07
5.9382509e-08
4.7045816e-08
4.4541434e-08
4.5555855e-08
4.1381668e-08
4.3838261e-08
3.6713023e-08
4.3028041e-08
3.1292096e-08
3.8246694e-08
2.9903171e-08
3.2943151e-08
2.8323602e-08
2.9923388e-08
3.0759344e-08
1.4922956e-07
3.1151395e-06
1.2923841e-05
5.4249983e-06
8.7010555e-07
6.3277634e-08
5.0315367e-08
4.7617196e-08
4.8606743e-08
4.4369997e-08
4.6429844e-08
3.9283646e-08
4.5121981e-08
3.3391196e-08
4.0013582e-08
3.1629009e-08
3.45137e-08
2.9818762e-08
3.139899e-08
3.2106071e-08
1.4960051e-07
3.0156574e-06
1.2213735e-05
4.7799964e-06
8.0051032e-07
6.4478727e-08
5.3038882e-08
5.0524047e-08
5.1639892e-08
4.7225323e-08
4.9230416e-08
4.2114416e-08
4.7674975e-08
3.6247278e-08
4.1430993e-08
3.4141385e-08
3.6378906e-08
3.1993533e-08
3.3296272e-08
3.3542717e-08
1.4423477e-07
2.8081018e-06
1.1480328e-05
4.2496149e-06
7.5049688e-07
6.5084182e-08
5.455308e-08
5.2086093e-08
5.3010718e-08
4.8768416e-08
5.0966858e-08
4.4186947e-08
4.8437812e-08
3.7784429e-08
4.2863889e-08
3.5443487e-08
3.7994662e-08
3.3433989e-08
3.4982633e-08
3.4597654e-08
1.3081707e-07
2.6121551e-06
1.0626218e-05
3.7398728e-06
7.0252094e-07
6.8788414e-08
5.8309169e-08
5.557775e-08
5.6397126e-08
5.1982743e-08
5.3879011e-08
4.6761032e-08
5.1917953e-08
3.9553405e-08
4.5954306e-08
3.7080591e-08
4.0204012e-08
3.5212617e-08
3.6769559e-08
3.6209987e-08
1.2562651e-07
2.4117543e-06
9.7584748e-06
3.2385128e-06
6.538601e-07
7.0910719e-08
6.1836771e-08
5.9210912e-08
5.9852388e-08
5.5449245e-08
5.7085772e-08
4.9701569e-08
5.5628772e-08
4.216729e-08
4.9235344e-08
3.966876e-08
4.2824639e-08
3.7469839e-08
3.8967711e-08
3.7928636e-08
1.1898638e-07
2.1943144e-06
8.9128105e-06
2.7919445e-06
6.058827e-07
7.3153469e-08
6.4540722e-08
6.1997059e-08
6.2461657e-08
5.8049305e-08
6.0025237e-08
5.1770652e-08
5.8412174e-08
4.4048252e-08
5.1385604e-08
4.1699455e-08
4.4882932e-08
3.9407227e-08
4.1019023e-08
3.9740458e-08
1.115685e-07
1.9772809e-06
8.0570799e-06
2.3824336e-06
5.4869573e-07
7.7332813e-08
6.9022151e-08
6.6266701e-08
6.6683147e-08
6.1997232e-08
6.4019397e-08
5.5144691e-08
6.1685713e-08
4.6753874e-08
5.4240856e-08
4.4018152e-08
4.7248295e-08
4.1477843e-08
4.2986342e-08
4.1370387e-08
1.0605912e-07
1.7800795e-06
7.3048708e-06
1.9733065e-06
4.935803e-07
8.0591594e-08
7.4260932e-08
7.136961e-08
7.1836954e-08
6.7034901e-08
6.9142065e-08
6.004509e-08
6.5996002e-08
5.1085571e-08
5.8659164e-08
4.8069583e-08
5.1450523e-08
4.5277547e-08
4.6796523e-08
4.4781446e-08
1.0541864e-07
1.6327268e-06
6.5463575e-06
1.66756e-06
4.4515119e-07
8.3161373e-08
7.743217e-08
7.4458299e-08
7.4696278e-08
7.004273e-08
7.1625161e-08
6.2940002e-08
6.8645827e-08
5.3620562e-08
6.1193485e-08
5.0296108e-08
5.3621098e-08
4.7331058e-08
4.8760318e-08
4.6658149e-08
1.0098891e-07
1.4624421e-06
5.7321047e-06
1.3022585e-06
4.1393365e-07
9.1470317e-08
8.5487304e-08
8.2532641e-08
8.2326146e-08
7.7821886e-08
7.8663885e-08
7.0190699e-08
7.4893639e-08
5.9845446e-08
6.6902821e-08
5.5582725e-08
5.9122833e-08
5.2058907e-08
5.3498742e-08
5.0361629e-08
8.7877718e-08
1.2138618e-06
5.4583103e-06
2.3163072e-05
2.3793543e-05
1.8426684e-05
1.2312353e-05
4.1593589e-06
7.1482858e-07
1.2215947e-07
8.4366679e-08
6.5406839e-08
7.8555676e-08
8.7181481e-08
8.1073648e-08
1.2816004e-07
6.5467634e-08
7.0517876e-08
4.1562247e-08
5.9968937e-08
4.9514307e-08
8.9860441e-06
1.632452e-05
2.6880722e-05
2.6668555e-05
1.4907545e-05
8.6794567e-06
1.5250141e-06
2.7989053e-07
7.4747631e-08
8.4096792e-08
5.4946452e-08
9.2232863e-08
4.5498911e-08
1.3071273e-07
9.2221901e-08
7.3893049e-08
5.50384e-08
4.2829162e-08
6.0750231e-08
3.4787887e-06
1.4060401e-05
1.8979807e-05
2.4585617e-05
2.3248116e-05
1.2028179e-05
4.5442853e-06
7.0403932e-07
1.453448e-07
7.1213765e-08
7.588254e-08
5.6503781e-08
6.8390611e-08
4.9326144e-08
7.4029515e-08
6.3205396e-08
5.9993293e-08
4.1003863e-08
3.7190325e-08
5.0192524e-08
4.5909565e-06
2.0662601e-05
2.0774176e-05
2.0670444e-05
1.6913252e-05
8.3339501e-06
1.3921844e-06
2.502687e-07
8.4011008e-08
5.6869147e-08
8.8586291e-08
4.659652e-08
7.904519e-08
3.3853148e-08
3.8589547e-08
4.4769634e-08
5.5394078e-08
2.112612e-08
6.8204307e-08
8.7521618e-08
3.3495486e-06
1.1743182e-05
2.0823232e-05
1.7885759e-05
1.1227881e-05
4.050368e-06
5.5865602e-07
9.9022639e-08
8.4350312e-08
5.4667024e-08
8.4442359e-08
4.4289201e-08
4.96488e-08
1.7859219e-08
6.872561e-08
3.0969364e-08
2.4360694e-08
1.7834644e-08
3.2309335e-08
2.2184728e-07
4.2774809e-06
2.0779212e-05
2.0988148e-05
1.5508248e-05
7.2836855e-06
1.7997682e-06
1.9028061e-07
8.1665266e-08
8.2062815e-08
6.1174855e-08
7.5472273e-08
2.8019002e-08
2.7656658e-08
2.3288781e-08
3.2120039e-08
2.6952764e-08
1.8182902e-08
3.1248656e-08
2.1874476e-08
3.0815106e-07
3.1106068e-06
1.9441098e-05
2.1428597e-05
1.458839e-05
5.8057489e-06
5.302409e-07
1.2953185e-07
7.8641982e-08
8.1784455e-08
6.0035887e-08
5.3613959e-08
5.0501935e-08
3.3297437e-08
3.1601538e-08
2.6633555e-08
1.9948731e-08
2.3626996e-08
3.1563325e-08
2.7567393e-08
1.4658921e-07
2.6301326e-06
1.7811312e-05
2.1808595e-05
1.3576706e-05
4.6480255e-06
4.8959547e-07
1.0810261e-07
8.1930336e-08
7.6407659e-08
8.7423863e-08
5.9282284e-08
7.049507e-08
4.9190882e-08
3.7661915e-08
3.561444e-08
4.4737383e-08
2.4970795e-08
2.8344158e-08
3.3665293e-08
1.224275e-07
1.9749528e-06
1.2672826e-05
2.1134095e-05
1.2651341e-05
4.1429358e-06
3.5253516e-07
8.0127973e-08
7.5963989e-08
6.8305601e-08
7.2355963e-08
7.3016968e-08
4.7739128e-08
9.1992019e-08
3.5627562e-08
3.8224315e-08
5.7521881e-08
3.6792056e-08
4.8599644e-08
5.3276787e-08
8.7386481e-08
1.5060874e-06
1.2084948e-05
2.0282698e-05
1.2077289e-05
3.7409171e-06
3.4880263e-07
8.6284983e-08
7.8094091e-08
8.654989e-08
5.9171301e-08
8.884507e-08
6.1186296e-08
6.5582117e-08
4.4044877e-08
3.3287112e-08
3.8833443e-08
4.1957361e-08
5.4424927e-08
4.4918875e-08
6.8436909e-08
9.0019455e-07
8.9212994e-06
1.9344228e-05
1.1266643e-05
3.2786984e-06
2.941818e-07
8.999221e-08
7.9676263e-08
1.2058455e-07
6.7772626e-08
8.7336676e-08
8.3054754e-08
3.6147582e-08
6.056051e-08
3.7550477e-08
5.7924449e-08
4.5873875e-08
4.1283033e-08
4.6294906e-08
6.0858324e-08
7.3839699e-07
8.091275e-06
1.8914279e-05
1.0705094e-05
3.0593562e-06
2.6110025e-07
8.5450004e-08
9.4749614e-08
9.4913218e-08
9.3373815e-08
5.0076606e-08
4.8951075e-08
4.4766692e-08
7.45913e-08
4.375728e-08
4.6757482e-08
4.8971833e-08
5.0071937e-08
4.4498075e-08
5.9443749e-08
5.9605734e-07
7.2733625e-06
1.8263729e-05
1.0000155e-05
2.6591256e-06
2.3000033e-07
8.0500655e-08
9.4200982e-08
7.5850201e-08
9.7829229e-08
5.52756e-08
9.265993e-08
6.3871244e-08
8.5797212e-08
5.246338e-08
5.1326044e-08
5.2644842e-08
5.1587021e-08
4.8465628e-08
7.9109762e-08
7.3661655e-07
6.1292279e-06
1.7577322e-05
9.6102836e-06
2.5191616e-06
2.8166408e-07
8.0774883e-08
1.0305467e-07
7.4674729e-08
1.1285157e-07
7.3721208e-08
7.9992691e-08
6.9618268e-08
7.7502715e-08
7.5057336e-08
5.3593481e-08
6.2029147e-08
5.1169732e-08
5.3910537e-08
7.3625435e-08
8.5598239e-07
6.9824566e-06
1.6914138e-05
9.0692807e-06
2.1807148e-06
1.8332841e-07
9.0060499e-08
1.1560343e-07
1.0042555e-07
1.008708e-07
9.3248887e-08
7.9308191e-08
9.0912135e-08
6.3272121e-08
8.2220606e-08
5.6997052e-08
5.9490296e-08
5.8354905e-08
5.5601434e-08
7.423334e-08
7.7733067e-07
6.4862497e-06
1.643356e-05
8.5636414e-06
2.0835722e-06
1.7905637e-07
1.1600768e-07
1.1337202e-07
1.132707e-07
9.8791329e-08
1.0379345e-07
8.5436411e-08
9.132822e-08
6.8870703e-08
8.2966535e-08
6.9339161e-08
5.788205e-08
6.0488414e-08
5.3016901e-08
7.8696915e-08
8.2860402e-07
6.2831363e-06
1.5870772e-05
8.1372945e-06
2.0230835e-06
1.6796484e-07
1.2759891e-07
1.2294386e-07
1.192185e-07
1.0641513e-07
1.0575832e-07
9.0045474e-08
8.8322148e-08
7.3473676e-08
7.2517144e-08
6.6648439e-08
6.5391033e-08
5.50881e-08
5.093839e-08
7.6514651e-08
8.0699937e-07
6.2336662e-06
1.5506072e-05
7.6916357e-06
1.8193592e-06
1.6446878e-07
1.2615693e-07
1.1932286e-07
1.1991444e-07
1.1068639e-07
1.1306123e-07
1.0008562e-07
9.5269016e-08
8.4712377e-08
7.2882895e-08
7.141535e-08
6.7181041e-08
6.9919278e-08
5.8994343e-08
8.4607139e-08
8.2662069e-07
5.9489475e-06
1.5069291e-05
6.934928e-06
1.6811341e-06
1.8572139e-07
1.3895225e-07
1.3178918e-07
1.3165089e-07
1.1936696e-07
1.1458051e-07
1.0355591e-07
1.027531e-07
8.9247649e-08
8.1264519e-08
7.6802665e-08
6.6802195e-08
7.0133584e-08
6.0454584e-08
8.5964695e-08
7.8673946e-07
5.640044e-06
1.4402583e-05
6.1802303e-06
1.5649706e-06
1.9792974e-07
1.4745435e-07
1.4063594e-07
1.3986522e-07
1.3074965e-07
1.2392515e-07
1.146004e-07
1.0201488e-07
9.430235e-08
8.3473265e-08
7.8894113e-08
7.10079e-08
6.79568e-08
5.6960516e-08
8.3740152e-08
6.9617717e-07
5.1298154e-06
1.3711937e-05
5.4864518e-06
1.3956543e-06
2.0886016e-07
1.5464526e-07
1.4664075e-07
1.4022293e-07
1.3215187e-07
1.2736883e-07
1.18257e-07
1.0332412e-07
1.0431607e-07
8.732752e-08
8.4603923e-08
7.5620529e-08
7.4711661e-08
6.3873823e-08
8.4424053e-08
6.5102115e-07
4.8463652e-06
1.2947667e-05
4.8802515e-06
1.2856756e-06
2.2210463e-07
1.5976592e-07
1.5738009e-07
1.4902546e-07
1.4043622e-07
1.3680595e-07
1.234014e-07
1.1751455e-07
9.8094473e-08
9.9910303e-08
8.5264241e-08
7.5239723e-08
7.8006918e-08
6.5952422e-08
8.6534553e-08
6.2981992e-07
4.434105e-06
1.2110057e-05
4.2992475e-06
1.1567136e-06
2.4307622e-07
1.6942421e-07
1.6496921e-07
1.5953009e-07
1.4655103e-07
1.4388254e-07
1.368925e-07
1.1802463e-07
1.0689473e-07
1.0252672e-07
9.3024659e-08
7.6098275e-08
8.3858429e-08
6.5194316e-08
8.7334116e-08
4.9772719e-07
3.6963176e-06
1.1209497e-05
3.8072037e-06
1.046505e-06
2.5280337e-07
1.8277338e-07
1.7511997e-07
1.6858244e-07
1.5915492e-07
1.4842364e-07
1.4992414e-07
1.2137509e-07
1.2408987e-07
9.5410413e-08
1.0504743e-07
8.3069963e-08
9.0476864e-08
6.9293009e-08
8.7859878e-08
4.4123691e-07
3.2318559e-06
1.0251691e-05
3.3328694e-06
9.4902601e-07
2.5037905e-07
1.8297627e-07
1.7500856e-07
1.6808816e-07
1.596302e-07
1.5116768e-07
1.5438555e-07
1.248635e-07
1.2902899e-07
1.0129606e-07
1.0127835e-07
8.79992e-08
9.0836545e-08
7.4792341e-08
8.980001e-08
4.2435166e-07
2.8760435e-06
9.3157818e-06
2.8510921e-06
8.3636002e-07
2.64606e-07
1.99474e-07
1.8949468e-07
1.8458523e-07
1.7802994e-07
1.6290707e-07
1.698846e-07
1.3241992e-07
1.3609832e-07
1.1138968e-07
1.0842064e-07
9.2277056e-08
9.4637786e-08
7.8036917e-08
9.3854763e-08
3.9190557e-07
2.5406307e-06
8.4141306e-06
2.448915e-06
7.3694261e-07
2.6762327e-07
2.0778318e-07
2.0041362e-07
1.9408523e-07
1.9121972e-07
1.714505e-07
1.7721302e-07
1.4336319e-07
1.3925872e-07
1.1747366e-07
1.1229268e-07
9.5891848e-08
9.4955883e-08
8.0218251e-08
9.0126904e-08
3.3700574e-07
2.2061004e-06
7.627929e-06
2.0525528e-06
6.3040142e-07
2.8106046e-07
2.2233736e-07
2.0984349e-07
2.0326439e-07
1.9685448e-07
1.8120448e-07
1.8132773e-07
1.525936e-07
1.467113e-07
1.2696892e-07
1.1938605e-07
1.021129e-07
1.0264098e-07
8.5196133e-08
9.5843889e-08
3.2758162e-07
1.8981505e-06
6.827173e-06
1.7246411e-06
5.4112003e-07
2.6791591e-07
2.3197641e-07
2.2336197e-07
2.1581054e-07
2.0613668e-07
1.9065183e-07
1.9151118e-07
1.6246198e-07
1.5199766e-07
1.3610297e-07
1.2438331e-07
1.0810461e-07
1.0526185e-07
8.9389583e-08
9.3797255e-08
2.8947327e-07
1.6217066e-06
6.0157843e-06
1.3581704e-06
4.5052726e-07
2.9739342e-07
2.5607696e-07
2.3890514e-07
2.2896021e-07
2.191336e-07
2.0849702e-07
2.0071742e-07
1.7691375e-07
1.579583e-07
1.4295256e-07
1.3284884e-07
1.1414386e-07
1.0966112e-07
9.476769e-08
9.2326577e-08
2.0980511e-07
1.304164e-06
5.4152309e-06
2.2681331e-05
2.0031383e-05
1.6592834e-05
1.1916683e-05
4.4683125e-06
7.8509639e-07
1.4157452e-07
8.4944012e-08
5.6696761e-08
7.8386338e-08
5.2154042e-08
9.4101874e-08
7.7749148e-08
6.0402817e-08
5.203183e-08
3.2993611e-08
2.3436721e-08
1.726866e-06
6.8522647e-06
1.6302502e-05
2.6573369e-05
2.2957993e-05
1.226968e-05
7.5396832e-06
1.5377718e-06
2.7343632e-07
5.9361391e-08
5.5577504e-08
3.4347767e-08
8.3061704e-08
4.0692202e-08
6.3205244e-08
6.3802911e-08
4.6230515e-08
2.6825185e-08
3.9110179e-08
2.3271328e-09
1.6068177e-06
1.6568848e-05
1.9141635e-05
2.4533743e-05
2.1137459e-05
1.0310191e-05
3.4268784e-06
6.2637972e-07
1.3059398e-07
5.7733341e-08
5.0704569e-08
4.1742928e-08
5.0501944e-08
2.4942281e-08
3.7471535e-08
2.8001934e-08
4.6949644e-08
3.5101622e-08
1.8665564e-08
3.9738942e-08
1.5946002e-06
2.3621061e-05
2.0684308e-05
2.0709444e-05
1.5743439e-05
8.4279392e-06
1.5162013e-06
1.8696517e-07
8.2661352e-08
4.3858732e-08
5.893166e-08
3.4505132e-08
6.921848e-08
1.3600144e-08
7.8421659e-08
2.4949107e-08
5.5272526e-08
2.4816798e-08
2.9652456e-08
8.1506309e-08
1.5000762e-06
1.829918e-05
2.0774826e-05
1.7886396e-05
1.0726716e-05
4.4985325e-06
6.4291919e-07
1.0169996e-07
6.214668e-08
5.6644999e-08
5.1913596e-08
3.5429629e-08
2.2745692e-08
2.7746964e-08
1.9798393e-08
1.6179772e-08
3.5427252e-08
2.3853245e-08
2.3527786e-08
5.2898911e-08
9.6049882e-07
1.9126422e-05
2.1381323e-05
1.5924259e-05
6.7348908e-06
1.7482705e-06
1.9138971e-07
5.8000535e-08
5.2028794e-08
4.588587e-08
3.7930976e-08
3.6403447e-08
2.4924286e-08
3.359907e-08
2.2766853e-08
1.3950951e-08
3.0181663e-08
1.8575419e-08
2.5117023e-08
6.3575007e-08
9.866609e-08
1.2171176e-05
2.0783527e-05
1.4483772e-05
5.3921963e-06
8.2946528e-07
1.003995e-07
7.2994231e-08
4.5696581e-08
5.5691217e-08
3.7885355e-08
4.5649635e-08
2.8120162e-08
2.2999596e-08
3.2066662e-08
2.4409316e-08
3.0650415e-08
1.7444005e-08
2.617846e-08
1.6340288e-07
5.7209384e-06
2.0402298e-05
2.074005e-05
1.3655966e-05
4.3430202e-06
4.0632275e-07
6.6152413e-08
6.4347453e-08
6.0774187e-08
4.8421852e-08
5.5655554e-08
4.3985403e-08
4.0919686e-08
9.3789989e-08
2.8410456e-08
2.416419e-08
2.5517707e-08
2.7112213e-08
2.626856e-08
1.207943e-07
3.3610119e-06
1.604828e-05
2.1257221e-05
1.2817213e-05
3.9414595e-06
2.514122e-07
6.0034001e-08
5.3646143e-08
6.5291762e-08
4.5018873e-08
5.2325544e-08
4.1067532e-08
4.5137985e-08
2.988513e-08
5.0988429e-08
5.2428621e-08
2.1413863e-08
3.1330622e-08
3.6123605e-08
1.0134643e-07
1.7490654e-06
1.2761559e-05
2.0520687e-05
1.211648e-05
3.7132271e-06
3.3820469e-07
7.0723583e-08
6.162215e-08
6.1046181e-08
5.520642e-08
4.9116495e-08
3.8545896e-08
6.0521705e-08
3.0168679e-08
2.8430231e-08
5.3078701e-08
3.2040018e-08
3.2313845e-08
2.8492205e-08
6.7814424e-08
8.6236901e-07
9.7424721e-06
1.9857765e-05
1.1450691e-05
3.2342137e-06
2.7716277e-07
7.518257e-08
7.1715072e-08
7.2966601e-08
7.761266e-08
6.3089988e-08
3.8810983e-08
4.3562417e-08
4.3367111e-08
1.8987303e-08
4.7238997e-08
3.4877874e-08
4.2538324e-08
2.7151522e-08
6.4510044e-08
8.6385479e-07
8.787479e-06
1.9394726e-05
1.090671e-05
2.9489346e-06
2.4305133e-07
6.9203201e-08
8.3754707e-08
6.0886326e-08
6.5709612e-08
5.6550235e-08
8.4518286e-08
2.4654222e-08
5.8158915e-08
2.8961138e-08
4.4023562e-08
4.1674681e-08
4.7577805e-08
3.4975056e-08
5.550306e-08
7.8848973e-07
8.0335506e-06
1.8593739e-05
1.0279652e-05
2.7433558e-06
2.2118324e-07
6.486056e-08
7.729368e-08
6.2667087e-08
7.5681801e-08
3.60878e-08
7.7832409e-08
3.823339e-08
8.7031669e-08
4.1376279e-08
4.3518378e-08
4.105205e-08
3.9269881e-08
4.129179e-08
7.4268555e-08
9.4438191e-07
6.6181178e-06
1.7864714e-05
9.7103495e-06
2.5147348e-06
2.6492705e-07
7.0106148e-08
8.7346738e-08
5.6707628e-08
9.432206e-08
4.9405465e-08
8.284374e-08
5.4561925e-08
6.3292919e-08
5.5781412e-08
4.0527073e-08
4.6361064e-08
4.0236245e-08
3.6392497e-08
7.3486984e-08
1.0933234e-06
7.3170367e-06
1.7100547e-05
9.4114993e-06
2.3667111e-06
9.8568787e-08
7.3087561e-08
1.0212795e-07
7.1118542e-08
8.8218568e-08
7.6429776e-08
7.816348e-08
6.2816695e-08
5.4452706e-08
6.727931e-08
5.0178191e-08
5.0238107e-08
5.031858e-08
3.8784832e-08
6.9571333e-08
8.1883728e-07
7.0422015e-06
1.6571601e-05
8.8478536e-06
2.0904846e-06
1.7559301e-07
9.1717536e-08
9.2835667e-08
8.4472632e-08
8.0003737e-08
7.5169095e-08
6.8973036e-08
6.6029329e-08
5.8592243e-08
5.9383288e-08
5.3414981e-08
4.8148849e-08
4.9731307e-08
4.187096e-08
8.7575022e-08
9.4168467e-07
5.9925606e-06
1.6037019e-05
8.2873245e-06
2.041855e-06
1.5911154e-07
1.0195034e-07
1.0083321e-07
9.8330808e-08
8.6698208e-08
8.8318949e-08
7.542301e-08
7.2933819e-08
5.416293e-08
6.29992e-08
4.8326417e-08
5.176217e-08
4.8283385e-08
4.1110255e-08
7.6435731e-08
1.0729551e-06
6.7240075e-06
1.5619541e-05
7.8056948e-06
1.8448275e-06
1.5687778e-07
1.0633753e-07
1.0080698e-07
9.9242059e-08
9.3907757e-08
9.3333206e-08
8.3584946e-08
7.9308132e-08
6.4855824e-08
5.9803169e-08
6.0621382e-08
5.2687777e-08
5.7518858e-08
4.4263303e-08
7.767691e-08
9.206986e-07
5.996166e-06
1.5208252e-05
7.0990131e-06
1.6898658e-06
1.6749318e-07
1.1622285e-07
1.0756894e-07
1.0322651e-07
9.6794571e-08
9.2503248e-08
8.8745226e-08
7.3964765e-08
7.7325874e-08
6.1886697e-08
6.7030311e-08
5.0977114e-08
5.318078e-08
4.430241e-08
7.1745733e-08
7.5049808e-07
5.341494e-06
1.4527903e-05
6.3539522e-06
1.5830542e-06
1.6851655e-07
1.1995816e-07
1.1494693e-07
1.1366321e-07
1.0782758e-07
1.0138635e-07
9.4739151e-08
8.1084109e-08
7.5551188e-08
7.526326e-08
6.3166445e-08
5.7557495e-08
5.7556483e-08
4.634797e-08
7.187708e-08
7.2263977e-07
5.1776945e-06
1.3851204e-05
5.6223784e-06
1.4117359e-06
1.8603488e-07
1.2545884e-07
1.2319856e-07
1.2144214e-07
1.1242244e-07
1.1010015e-07
9.9171997e-08
8.9137602e-08
7.5219787e-08
7.3488367e-08
6.5646135e-08
6.1568999e-08
5.9698935e-08
5.0800527e-08
7.8549049e-08
7.052175e-07
4.6901598e-06
1.3150644e-05
5.0475592e-06
1.3041389e-06
1.9174621e-07
1.2825754e-07
1.2612334e-07
1.1933162e-07
1.1735163e-07
1.1069326e-07
1.0550344e-07
9.3409858e-08
8.9237413e-08
7.1410153e-08
7.0354729e-08
6.0235889e-08
5.9069079e-08
5.1072432e-08
7.3001319e-08
6.4172866e-07
4.3703896e-06
1.2253835e-05
4.4640508e-06
1.1975361e-06
2.1464658e-07
1.3743905e-07
1.321983e-07
1.2510653e-07
1.1705131e-07
1.1284846e-07
1.0649387e-07
9.4308473e-08
8.8051284e-08
8.2371786e-08
7.0704139e-08
6.4114729e-08
6.2756353e-08
5.4218315e-08
7.0108759e-08
5.2436118e-07
3.7338055e-06
1.1355303e-05
3.9359607e-06
1.0816556e-06
2.2643174e-07
1.4939263e-07
1.4505791e-07
1.4115333e-07
1.329004e-07
1.2314868e-07
1.2072566e-07
9.8233268e-08
9.4751689e-08
8.6100645e-08
8.0949475e-08
6.7058578e-08
6.8553639e-08
5.8647051e-08
7.1068178e-08
4.8765156e-07
3.316532e-06
1.0375455e-05
3.4590061e-06
9.6746683e-07
2.2570672e-07
1.5683394e-07
1.5274881e-07
1.4350662e-07
1.419336e-07
1.2649388e-07
1.2485453e-07
1.1011909e-07
1.004174e-07
9.0475603e-08
8.4501652e-08
7.3630294e-08
6.9130827e-08
6.2742807e-08
7.1814388e-08
4.3231036e-07
3.035993e-06
9.4586148e-06
2.9848328e-06
8.7445847e-07
2.3842741e-07
1.6471342e-07
1.5855866e-07
1.5158255e-07
1.4864563e-07
1.3831514e-07
1.2696963e-07
1.1753543e-07
1.0368625e-07
9.5403946e-08
8.4847364e-08
7.825553e-08
7.1920176e-08
6.5661511e-08
7.6066653e-08
3.8117912e-07
2.5498046e-06
8.5741036e-06
2.5677135e-06
7.674986e-07
2.3590339e-07
1.771483e-07
1.6920806e-07
1.6046784e-07
1.5821629e-07
1.4226506e-07
1.4185176e-07
1.2160324e-07
1.0905804e-07
9.8389581e-08
8.8804061e-08
7.919409e-08
7.568943e-08
6.6265808e-08
7.542355e-08
3.4413284e-07
2.2345006e-06
7.7726705e-06
2.1655107e-06
6.5771873e-07
2.5312915e-07
1.8601255e-07
1.7891378e-07
1.7352653e-07
1.6967186e-07
1.5482415e-07
1.5065619e-07
1.3341798e-07
1.1819074e-07
1.0898191e-07
9.6546668e-08
8.7130951e-08
8.1458897e-08
7.1926659e-08
7.9158617e-08
3.3043624e-07
1.9068619e-06
6.9983591e-06
1.8438094e-06
5.7211919e-07
2.3910332e-07
1.937748e-07
1.8594488e-07
1.8409305e-07
1.7504367e-07
1.6565318e-07
1.5679835e-07
1.4026226e-07
1.2089207e-07
1.1436676e-07
1.0137663e-07
9.0997959e-08
8.6746555e-08
7.5487169e-08
8.106444e-08
2.9210816e-07
1.6488205e-06
6.0942336e-06
1.4750305e-06
4.8147046e-07
2.6220761e-07
2.117229e-07
1.9527093e-07
1.9021412e-07
1.8230596e-07
1.7418632e-07
1.6146502e-07
1.5054954e-07
1.2759228e-07
1.1890828e-07
1.0781315e-07
9.6047499e-08
9.1561843e-08
8.1049311e-08
8.1681837e-08
2.0906711e-07
1.3584465e-06
5.8821384e-06
2.2459286e-05
2.1068116e-05
1.67562e-05
1.2020903e-05
5.4962295e-06
9.6650423e-07
1.6331299e-07
2.2183343e-07
1.0554954e-07
1.291029e-07
1.4912244e-07
1.6825793e-07
1.1239769e-07
5.2777729e-08
4.7880281e-08
3.2139305e-08
4.0875009e-08
1.617929e-06
7.3037932e-06
1.6426777e-05
2.6599775e-05
2.3282934e-05
1.247278e-05
8.9196186e-06
1.5250772e-06
2.6313924e-07
6.3733205e-08
6.722897e-08
4.3311158e-08
7.2283326e-08
3.9024301e-08
7.9425113e-08
6.0594613e-08
4.0955579e-08
2.3671969e-08
3.0395862e-08
2.2701496e-08
2.3868339e-06
1.9224972e-05
1.9769347e-05
2.4763941e-05
2.0867728e-05
1.0193075e-05
3.9318838e-06
6.6338409e-07
1.2064534e-07
5.3396226e-08
5.816643e-08
5.8761015e-08
6.6875751e-08
3.2386697e-08
5.1982602e-08
3.6842379e-08
3.6417488e-08
2.2846302e-08
3.1913509e-08
1.6987085e-08
1.2586434e-06
8.6095477e-06
1.8992697e-05
2.1005737e-05
1.6184104e-05
8.2771464e-06
1.5138012e-06
1.9964679e-07
8.6743421e-08
4.0222589e-08
6.0191039e-08
3.2394787e-08
3.9101055e-08
2.1839982e-08
3.635334e-08
3.1828726e-08
1.7909595e-08
1.597973e-08
1.6479223e-08
5.3825079e-08
2.1713861e-06
1.9473253e-05
2.0691698e-05
1.8076318e-05
1.0830137e-05
4.3430602e-06
5.1568104e-07
8.4230213e-08
6.7115078e-08
4.8113317e-08
6.7722615e-08
3.4758682e-08
3.6784891e-08
7.8184852e-08
4.5761822e-08
4.5135272e-08
6.4817289e-08
3.2068251e-08
1.7388296e-08
5.6739128e-08
3.0864398e-06
2.0668922e-05
2.1126354e-05
1.5909522e-05
7.0191237e-06
1.9666477e-06
1.8930401e-07
6.8740085e-08
4.4895101e-08
4.7216618e-08
4.4696411e-08
4.9074737e-08
2.227984e-08
1.2256095e-07
4.37608e-08
3.4966949e-08
1.9002531e-08
2.0295274e-08
2.6704349e-08
6.9005062e-08
2.1360741e-06
1.7953974e-05
2.1196576e-05
1.4944205e-05
5.86937e-06
7.9155341e-07
9.4963125e-08
7.2114867e-08
5.5737472e-08
4.346842e-08
3.8829193e-08
5.3843125e-08
6.0580417e-08
1.3348826e-07
3.2261239e-08
5.2699574e-08
1.4864627e-08
2.1585282e-08
1.8186329e-08
6.7801611e-08
9.4015902e-07
1.6185195e-05
2.1705396e-05
1.3973417e-05
4.7803949e-06
3.3920917e-07
7.4945305e-08
5.9180472e-08
8.9081253e-08
5.6596953e-08
4.649574e-08
5.7111872e-08
9.418904e-08
7.6219129e-08
3.5811027e-08
4.4905926e-08
1.7738994e-08
2.6905422e-08
2.8631451e-08
8.3186197e-08
1.0213965e-06
1.2663117e-05
2.1551266e-05
1.3112565e-05
4.2884839e-06
2.6604298e-07
5.6966386e-08
4.5874268e-08
5.5546321e-08
5.5177422e-08
6.4964487e-08
4.3046244e-08
3.9474542e-08
7.5747047e-08
2.9356565e-08
4.4467049e-08
2.2204938e-08
7.0380965e-08
2.6950423e-08
6.0376767e-08
1.0460229e-06
1.0409556e-05
2.0472874e-05
1.2545212e-05
3.6694806e-06
3.8967068e-07
7.8400285e-08
6.433658e-08
5.381389e-08
4.8671038e-08
9.1933193e-08
5.0135511e-08
3.7516176e-08
5.2981265e-08
3.3184817e-08
7.6990343e-08
3.2551149e-08
4.3924303e-08
3.0780856e-08
4.4267759e-08
4.3833214e-07
7.3409274e-06
1.9696367e-05
1.1736373e-05
3.2971528e-06
2.9036718e-07
7.0658347e-08
7.2870943e-08
7.2516451e-08
5.599075e-08
4.9528791e-08
5.7103261e-08
3.1288796e-08
4.2361246e-08
6.3695297e-08
9.5128557e-08
3.5235143e-08
3.1580526e-08
3.1515769e-08
5.6969039e-08
7.3195667e-07
8.3927357e-06
1.9336791e-05
1.1189096e-05
3.0088405e-06
2.4798759e-07
6.9010282e-08
7.1332341e-08
7.0602811e-08
6.5637658e-08
4.3118218e-08
4.514624e-08
4.5118456e-08
9.0185118e-08
5.8839056e-08
5.6746619e-08
4.1698365e-08
3.6605106e-08
3.7229288e-08
7.8238109e-08
1.0113851e-06
7.3819395e-06
1.8733664e-05
1.0667937e-05
2.8205244e-06
2.6902717e-07
7.7720673e-08
7.1182409e-08
6.8455911e-08
9.8020479e-08
3.6721225e-08
5.3419299e-08
5.1506025e-08
1.5952262e-07
6.426272e-08
6.7169945e-08
3.8821407e-08
4.0279637e-08
3.4648213e-08
7.5035399e-08
1.068195e-06
7.4164493e-06
1.8136431e-05
1.010085e-05
2.5079587e-06
2.2890878e-07
8.8638412e-08
1.1004582e-07
4.7124867e-08
7.645194e-08
4.9046483e-08
7.9176501e-08
5.3276316e-08
7.0763497e-08
6.9715021e-08
7.6223945e-08
4.4544253e-08
4.3505925e-08
3.792254e-08
7.1215751e-08
9.5649756e-07
7.0248264e-06
1.7498611e-05
9.6535805e-06
2.3681937e-06
2.3588944e-07
5.6797199e-08
9.768898e-08
6.1538126e-08
9.2019523e-08
7.0806701e-08
6.6760606e-08
6.9260598e-08
5.8539265e-08
7.117022e-08
7.352692e-08
4.5172951e-08
4.5874938e-08
4.0765097e-08
8.0501702e-08
1.1846491e-06