/*--------------------------------*- C++ -*----------------------------------*\
| =========                 |                                                 |
| \\      /  F ield         | OpenFOAM: The Open Source CFD Toolbox           |
|  \\    /   O peration     | Version:  1.7.x                                 |
|   \\  /    A nd           | Web:      www.OpenFOAM.com                      |
|    \\/     M anipulation  |                                                 |
\*---------------------------------------------------------------------------*/
FoamFile
{
    version     2.0;
    format      ascii;
    class       volScalarField;
    location    "0.006";
    object      H2O;
}
// * * * * * * * * * * * * * * * * * * * * * * * * * * * * * * * * * * * * * //

dimensions      [0 0 0 0 0 0 0];

internalField   nonuniform List<scalar> 
206988
(
7.0385545e-108
9.3168718e-109
3.2087509e-107
4.1553648e-107
5.8205134e-108
2.3113883e-107
3.4994878e-107
3.4561684e-106
3.3437078e-106
5.0654885e-106
4.375988e-106
5.7249518e-106
7.3424267e-106
2.2054791e-106
1.7401445e-106
1.3182553e-106
1.2666196e-106
2.5000844e-106
5.9655168e-107
3.1159833e-108
2.2656469e-109
1.8953101e-108
3.735983e-108
5.3710788e-108
1.0052988e-108
7.2648761e-108
1.4356532e-108
8.2156361e-108
1.6469382e-107
3.3559034e-107
4.7497369e-107
1.1676623e-106
5.9119648e-107
1.5627338e-107
1.0358411e-107
6.4252318e-108
2.7307429e-107
8.1286139e-107
1.8956212e-107
6.5859601e-109
3.8543328e-110
1.5536599e-109
1.8588706e-109
3.8575621e-109
3.4431094e-109
6.0674703e-109
1.1145673e-109
2.7920975e-109
6.0326476e-108
5.9754102e-108
3.4709099e-108
7.4173875e-108
8.7093824e-108
1.1771773e-108
6.8049552e-109
3.1522659e-109
4.2476519e-108
7.4805787e-108
3.0255985e-108
5.5757438e-109
1.7018134e-110
1.6032416e-110
7.5172902e-111
1.4991051e-110
1.1919066e-109
2.1296118e-110
1.6516784e-110
2.0920825e-109
1.8603817e-108
1.0924182e-108
5.0213506e-109
9.4134727e-109
1.8387146e-108
2.4830998e-109
1.6400106e-108
6.936961e-109
3.5068908e-108
9.1569666e-109
2.3938148e-108
1.5455043e-108
6.2287632e-112
2.1720931e-111
8.7799438e-112
2.6583189e-110
3.5790061e-109
1.6367884e-109
6.5407261e-111
1.1829452e-110
8.3269198e-110
1.8719632e-109
2.6786011e-109
1.6349453e-109
2.8035077e-109
4.4051711e-109
2.6354386e-106
1.58732e-107
2.5434946e-108
9.51234e-109
2.0283618e-108
1.3750556e-108
5.663607e-112
2.3663281e-111
4.2206529e-113
1.2408545e-111
1.5808089e-110
8.2868559e-110
2.4738526e-108
1.0272678e-108
2.6777943e-111
1.0044125e-109
5.2517634e-110
3.4406359e-110
2.2345484e-109
3.9523554e-108
1.2048088e-106
1.0274472e-107
1.057333e-108
6.5690617e-109
1.0151209e-108
7.9267224e-109
6.0961632e-113
4.3298081e-112
1.0939854e-111
4.7307248e-113
5.8783967e-111
9.2158776e-110
2.0129651e-109
2.4659061e-109
3.8101593e-109
5.4278384e-108
8.4930659e-111
4.8967731e-109
5.7501003e-108
3.7838562e-108
3.7598669e-107
3.0920515e-108
5.8245509e-109
3.2612931e-109
4.7509174e-109
2.3818675e-109
4.4030554e-114
8.293221e-113
4.0630148e-112
1.5283859e-111
7.2976153e-111
1.2921195e-110
2.0393046e-109
6.0420713e-108
1.202175e-106
7.8399176e-108
8.5741037e-110
9.9639476e-110
7.1442548e-109
1.3281814e-108
4.76094e-108
4.6048075e-109
4.5574873e-109
6.6522721e-110
1.843294e-109
3.3821452e-110
3.456707e-115
9.0624368e-114
9.7114741e-113
3.2278934e-112
1.5798556e-111
4.6015653e-111
1.7591902e-109
3.3443738e-108
6.1373187e-107
3.3556042e-108
7.030054e-110
2.475305e-110
9.563077e-110
3.3485331e-109
9.49809e-109
7.5008622e-110
1.3493591e-109
8.21214e-111
3.5387909e-110
6.754145e-111
4.594585e-114
4.7986461e-114
2.1208635e-113
4.7532047e-113
3.4810138e-112
1.6259555e-111
5.3490631e-110
9.0324662e-109
1.5620531e-107
8.3127498e-109
2.044003e-110
8.1841257e-111
1.6947055e-110
9.7429103e-110
1.4142029e-109
2.0337923e-110
4.7465398e-110
1.5906353e-111
9.8143127e-111
1.2121781e-111
1.7250373e-114
2.5119889e-114
6.7722096e-114
1.5148014e-113
8.8610907e-113
3.6118111e-112
8.4645095e-111
9.0722006e-110
2.6014177e-108
1.4971006e-109
5.4018781e-111
1.9905617e-111
2.6078711e-111
2.3730665e-110
2.2673774e-110
4.7925261e-111
1.3585695e-110
2.9766393e-112
2.3933668e-111
1.103253e-112
5.5395775e-115
7.3947039e-115
3.8085585e-114
8.2698399e-114
2.0466169e-113
4.1755876e-113
1.0617478e-111
1.3542699e-110
3.301044e-109
1.7986181e-110
8.244641e-112
3.6071597e-112
4.0454016e-112
2.2867863e-111
3.3942212e-111
9.9581735e-112
3.302727e-111
5.1720261e-113
5.1577177e-112
9.7063146e-114
8.6893679e-116
1.3762057e-115
1.0320534e-114
2.3975817e-114
4.0728131e-114
4.5892514e-114
1.1189674e-112
1.4832476e-111
3.4531018e-110
1.946359e-111
1.0551878e-112
2.5780568e-113
3.4420209e-113
1.7892967e-112
4.6720291e-112
1.4912774e-112
4.5369933e-112
7.7128066e-114
4.64073e-113
1.3378038e-114
8.1037067e-117
1.8623173e-116
1.9720677e-115
4.5369334e-115
6.4816733e-115
4.8271019e-115
1.0142736e-113
1.3542458e-112
3.1050099e-111
1.5771507e-112
1.1824776e-113
1.9992683e-114
2.1570764e-114
2.3550371e-113
3.9685597e-113
2.173962e-113
8.9576469e-113
1.0683943e-114
7.0402793e-114
1.7096695e-115
5.9280963e-118
1.229231e-117
1.7939561e-116
4.2900055e-116
7.5601288e-116
3.5551684e-116
7.7243021e-115
9.7474891e-114
2.3551788e-112
1.097092e-113
1.1200408e-114
1.6277214e-115
1.4468034e-115
2.719668e-114
3.0484585e-114
2.6334814e-114
7.4751962e-114
8.1456289e-116
4.9399739e-115
1.9031644e-116
2.6328476e-119
9.3732327e-119
1.7860797e-117
4.3680185e-117
6.5568797e-117
2.4476537e-117
5.0356845e-116
4.66794e-115
9.1650876e-114
3.5829639e-115
7.7261302e-116
8.3885526e-117
1.9599691e-116
2.470839e-115
1.7770509e-115
1.8442705e-115
4.9391362e-115
6.1253014e-117
3.0864314e-116
1.8607789e-117
1.1712045e-120
6.1084404e-120
1.6950522e-118
4.9261043e-118
4.2149683e-118
1.1307351e-118
2.8237006e-117
1.8459939e-116
2.5072342e-115
1.2717182e-116
8.3865534e-117
1.0563166e-117
3.3346754e-117
1.9936706e-116
9.214153e-117
9.3878246e-117
2.7270144e-116
4.7869054e-118
1.7606495e-117
1.6069373e-118
2.6979447e-122
2.1493731e-121
9.6006575e-120
2.8119994e-119
1.7927586e-119
9.6083581e-120
1.2339144e-118
7.0759844e-118
1.1399685e-116
1.0949935e-117
1.8431896e-117
1.4246305e-118
2.8022621e-118
9.3836974e-118
4.4926806e-118
4.8332291e-118
1.3109725e-117
4.0597791e-119
9.270824e-119
1.2032902e-119
6.6498621e-124
1.0699598e-122
5.0741057e-121
1.8239168e-120
8.4081344e-121
1.1976523e-120
7.0602132e-120
2.910115e-119
4.6928985e-118
9.6809338e-119
1.8268457e-118
1.4440173e-119
3.6733321e-119
6.9674355e-119
4.3235696e-119
4.7013049e-119
1.1694406e-118
6.0240535e-120
9.4170568e-120
7.8800831e-121
3.3600336e-125
6.5283621e-124
3.278663e-122
1.3883087e-121
4.7808557e-121
1.0606814e-120
3.340907e-121
1.0878896e-120
9.5226047e-120
7.9772563e-120
1.0313576e-119
1.1520719e-120
3.8930026e-120
5.8012508e-120
5.4279892e-120
5.400817e-120
1.006023e-119
8.1054486e-121
5.123526e-121
4.626014e-122
3.7807947e-126
3.2234683e-125
1.8476275e-123
2.5675846e-122
4.5161614e-121
2.3583439e-121
2.1256773e-120
2.6914847e-121
4.4269866e-121
6.2020864e-121
1.0971264e-120
1.0514168e-121
4.3851511e-121
5.610001e-121
7.3934486e-121
7.9055936e-121
1.1050764e-120
6.9655862e-122
3.7980151e-122
2.1178125e-123
1.1230494e-126
2.2103247e-125
1.9560911e-123
1.2244108e-121
3.3090845e-120
2.2256993e-120
5.9779186e-121
2.438883e-122
3.4031016e-122
1.2676522e-121
2.4968682e-121
3.7988816e-120
9.0232976e-121
1.467487e-121
1.2208599e-121
1.0104999e-120
2.8027843e-121
6.8819913e-123
7.8740465e-123
1.9065951e-124
1.9857456e-127
5.7681314e-126
5.7604845e-124
2.7825701e-122
7.7053819e-121
5.513141e-121
4.8266948e-122
3.4294812e-123
1.8091133e-122
2.7265813e-121
5.6675147e-121
1.2833868e-120
4.8631201e-121
3.3468922e-122
4.2521182e-122
4.7544055e-121
4.4410016e-122
1.0620478e-123
1.261881e-123
3.3545981e-125
3.0422713e-128
7.5544449e-127
6.3596893e-125
2.7054445e-123
7.0655941e-122
6.692502e-122
5.2343732e-123
5.7785634e-124
4.0752455e-123
6.7728742e-122
1.8970322e-121
1.7231782e-121
1.2045322e-121
5.0776126e-123
6.8665449e-123
6.1365183e-122
6.8243283e-123
1.5303859e-124
1.3941985e-124
4.8333998e-126
4.1266265e-129
5.9159241e-128
4.052854e-126
1.6160068e-124
3.6933815e-123
5.087096e-123
4.760116e-124
2.8210703e-124
6.4822974e-123
6.2565869e-123
1.9165455e-122
1.1636257e-122
1.8303851e-122
5.6762956e-124
6.1791316e-124
4.5157706e-123
4.2347056e-124
1.0935026e-125
1.1172377e-125
5.6531595e-127
4.4161083e-130
3.8134126e-129
1.8960744e-127
7.136272e-126
2.0343112e-124
2.8216365e-124
3.6090241e-125
4.3162173e-125
1.2575235e-123
4.0126905e-124
1.1882641e-123
1.1227526e-123
1.3719315e-123
3.2657042e-125
3.7495501e-125
4.5254678e-124
3.8183068e-125
1.3708688e-126
1.2928374e-126
6.7070797e-128
3.4504135e-130
6.1033428e-130
7.0367162e-129
2.3658204e-127
8.2496025e-126
1.1900296e-125
1.7506826e-126
3.6391868e-126
1.1449423e-124
2.6446156e-125
1.012499e-124
7.2202218e-125
7.9270406e-125
7.4147396e-126
6.117562e-126
3.5146568e-125
2.9016487e-126
2.1383035e-127
1.0699464e-127
1.1641092e-128
4.3505905e-131
7.2929183e-131
1.8079541e-130
6.868605e-129
2.9214581e-127
3.6176924e-127
7.6336108e-128
1.1982751e-127
6.9413944e-126
1.1974606e-126
5.33306e-126
2.2927379e-126
2.8316304e-126
4.6687212e-126
5.4247998e-126
3.0901043e-126
2.035322e-127
2.6640077e-128
1.230771e-128
2.0436823e-128
1.433924e-132
4.6693893e-132
3.1909782e-131
3.3003003e-130
1.1104276e-128
1.2118558e-128
7.5028924e-129
1.7134182e-128
2.6503826e-127
4.5601909e-128
1.536572e-127
6.8012967e-128
1.1143187e-127
9.0541505e-127
1.5975147e-126
5.9677275e-127
4.760391e-128
1.1957117e-128
1.1427562e-128
7.6133539e-129
8.0421989e-133
4.5164586e-132
4.1991688e-131
1.7337168e-130
1.4921825e-129
1.3082735e-129
7.3091123e-130
3.8564294e-129
2.1790757e-128
4.3449381e-129
1.2204404e-128
8.2411513e-129
1.0004507e-128
1.5526413e-127
2.6489881e-127
1.9265374e-127
8.4875285e-128
2.7667866e-127
5.2030865e-129
1.5975321e-129
1.2810248e-107
6.0286656e-108
2.0339266e-107
3.3496318e-106
1.4839854e-105
1.0197871e-105
4.8173564e-106
4.2244033e-105
4.6089815e-105
1.308602e-105
4.1520147e-106
4.4727248e-107
4.0785679e-106
3.5661289e-106
3.1343344e-106
1.4143502e-104
1.6041552e-105
3.6513086e-106
3.1773802e-106
1.8525019e-107
3.826284e-108
4.8853788e-109
1.5138095e-108
2.4783696e-107
1.7398898e-106
6.1526142e-107
2.3619869e-106
2.6367487e-106
2.8173695e-106
1.9856904e-106
6.0012446e-107
5.3066665e-109
3.3466711e-107
3.6084816e-107
2.0784653e-107
4.0843955e-105
4.6440674e-106
1.4145876e-106
1.0795784e-106
1.0275893e-107
1.8753316e-109
2.8761494e-109
4.6926395e-109
3.4477329e-108
8.2525519e-108
1.9505307e-108
5.8105613e-107
2.0564479e-107
1.3276346e-107
1.2953378e-106
1.4998439e-107
6.2013417e-108
5.0815206e-108
9.3144665e-108
6.3104084e-108
5.9820068e-106
5.0359625e-107
3.5411169e-107
1.6769504e-106
2.9640137e-107
2.3482702e-110
1.0110322e-110
8.1477599e-110
5.5252118e-109
5.5119875e-109
1.2661478e-109
9.4361702e-108
3.8550102e-108
1.4028781e-108
5.4197804e-107
5.8212249e-108
2.9007905e-108
1.2504807e-108
3.9642439e-107
2.3652839e-107
5.7635447e-107
2.0466688e-107
3.6379493e-107
1.5233639e-106
2.3937824e-107
4.8325091e-111
1.2809352e-110
1.9471317e-111
7.2495701e-110
4.4261404e-110
4.6358324e-110
1.1164496e-108
1.1743282e-109
5.6085644e-110
1.8748618e-107
4.4464929e-108
8.9099902e-109
2.3112666e-108
4.0457352e-106
3.8190356e-105
2.2494037e-107
1.133721e-107
3.4633611e-107
6.7381052e-107
8.7165887e-108
1.0541722e-109
8.9170354e-112
5.8113381e-110
1.0053789e-109
4.3608559e-111
4.5741202e-109
2.7607741e-108
1.266276e-109
2.1504621e-109
5.0722143e-108
1.7812563e-108
4.9540787e-108
3.8673414e-107
2.4639272e-106
1.7173224e-105
1.2907739e-107
2.2326513e-107
2.1359591e-107
2.1215242e-107
1.9421732e-108
4.0229691e-111
9.7499788e-111
2.0380204e-110
1.1030716e-109
1.4304212e-109
1.7047589e-108
1.0087567e-108
4.0695407e-109
2.3274905e-109
2.0681893e-108
6.576211e-109
1.7167296e-108
2.1599469e-107
7.2357372e-107
4.1229092e-106
1.3289275e-107
1.5283417e-107
9.4100122e-108
4.3260938e-108
3.3568077e-109
4.3640595e-113
1.0348621e-111
3.2504013e-111
8.3295879e-110
3.3251156e-110
7.3036165e-109
1.2378716e-109
5.9585094e-109
2.0825847e-107
1.0217044e-108
6.9738202e-109
2.0028319e-108
7.4656706e-108
1.3387052e-107
4.277403e-107
8.1358008e-108
6.1225108e-108
4.3199475e-108
9.1930988e-109
5.6811143e-110
6.4504808e-113
2.4285145e-112
2.9056521e-111
2.2232703e-110
1.2602783e-110
2.0322563e-109
1.5802974e-110
7.7930083e-109
8.5873977e-108
5.5905282e-109
3.3845782e-109
6.3363535e-109
1.9897291e-108
1.5797635e-108
3.958381e-108
2.7573575e-108
1.5297059e-108
9.5680036e-109
1.172909e-109
1.2920851e-110
2.0986038e-113
5.3653779e-113
7.8683556e-112
5.1687218e-111
4.2700369e-111
6.2643521e-110
4.8958176e-111
1.227162e-109
2.2337728e-108
1.938193e-109
9.9681693e-110
1.2718785e-109
2.8346033e-109
3.3871165e-109
6.964645e-109
1.0210042e-108
3.0628279e-109
2.3443003e-109
2.4372534e-110
2.2307316e-111
3.9371407e-114
1.332476e-113
2.8727056e-112
6.6093004e-111
1.2801623e-111
1.5780705e-110
8.5846062e-112
1.7249213e-110
3.511699e-109
3.6783771e-110
1.7136196e-110
1.8290152e-110
4.345488e-110
6.630427e-110
1.197988e-109
2.6494449e-109
5.6104477e-110
5.5390782e-110
2.7017781e-111
3.4321218e-112
5.2353538e-115
2.7380819e-114
7.3803624e-113
2.3546171e-111
4.8715684e-112
2.4146767e-111
3.2219734e-112
2.5534031e-111
4.8830348e-110
5.1630578e-111
2.7756178e-111
1.9291572e-111
4.6654374e-111
1.055804e-110
2.0974204e-110
5.3292711e-110
9.5045965e-111
1.1059335e-110
3.4230901e-112
5.2083905e-113
5.9647816e-116
4.3430399e-115
1.6997177e-113
4.3947682e-112
1.2058152e-112
2.6877382e-112
9.7819321e-113
2.3761398e-112
5.6405693e-111
6.0220614e-112
3.4980953e-112
1.6647394e-112
2.7100225e-112
1.4781264e-111
2.7301805e-111
7.1789922e-111
1.0856178e-111
1.1018889e-111
3.0900241e-113
7.4759676e-114
7.7886929e-117
4.321884e-116
1.885227e-114
4.4394624e-113
1.8503343e-113
2.267195e-113
1.8709869e-113
2.151459e-113
4.0066205e-112
2.7331055e-113
1.8851023e-113
6.5962455e-114
3.1469991e-113
1.5657839e-112
2.0863768e-112
5.4849728e-112
7.4636201e-113
8.2075548e-113
2.3450043e-114
9.7735076e-115
4.1535518e-118
2.1507421e-117
1.1387926e-115
2.4029152e-114
2.0183308e-114
1.523775e-114
2.5482878e-114
1.2769122e-114
1.8442283e-113
1.058599e-114
8.276344e-115
4.6201115e-115
2.7546754e-114
8.3125902e-114
1.3786296e-113
3.4196587e-113
4.491427e-114
5.4511229e-114
1.5124661e-115
1.1103314e-115
1.5236652e-119
1.1262442e-118
5.6088675e-117
1.182986e-115
1.106517e-115
5.4632232e-116
2.554181e-115
9.1405227e-116
1.4693624e-114
4.5726123e-116
3.8043238e-116
1.7197783e-116
1.7616068e-115
7.6146713e-115
8.0179058e-115
1.7916545e-114
2.3833728e-115
3.1405929e-115
8.5727228e-117
1.1055843e-116
1.1386708e-120
6.4437501e-120
3.1855052e-118
6.1450198e-117
5.7198364e-117
2.5992855e-117
1.9634344e-116
3.0700847e-117
6.7598923e-116
4.3054247e-117
5.5461381e-117
1.6146269e-117
1.6434945e-116
3.3689413e-116
4.0332544e-116
8.2278294e-116
1.1260137e-116
1.6262407e-116
4.4686006e-118
9.8184342e-118
1.6052093e-121
2.0223774e-121
1.0291429e-119
1.689023e-118
1.9737222e-118
1.2703498e-118
1.227958e-117
1.5874669e-118
5.090469e-117
5.7880311e-118
9.8582838e-118
1.0974698e-118
9.3450594e-118
1.3802461e-117
2.2888151e-117
3.8906327e-117
5.0371953e-118
8.6541879e-118
2.5196486e-119
7.8911596e-119
1.0418246e-122
8.9586654e-123
3.6941219e-121
4.3506986e-120
9.4270516e-120
8.1288641e-120
5.784338e-119
1.916718e-119
3.1007301e-118
6.1323048e-119
9.6137986e-119
9.3361802e-120
9.3229704e-119
1.0701729e-118
2.2563698e-118
3.2001481e-118
4.3862328e-119
8.6165144e-119
1.9052833e-120
6.4303894e-120
5.3646121e-124
8.8384691e-124
3.9495141e-122
1.8179078e-121
1.0318793e-120
8.5061346e-121
3.6454142e-120
2.4817443e-119
8.6372676e-120
5.659372e-120
1.0390306e-119
7.6386426e-121
8.378397e-120
8.9491822e-120
2.0417512e-119
2.2843963e-119
3.7892209e-120
6.8350918e-120
1.7099608e-121
5.8452263e-121
3.7409894e-125
8.6340916e-124
4.7662584e-122
3.2342375e-121
8.7037649e-121
4.5453438e-120
1.5333758e-120
5.6748179e-120
5.206957e-121
4.930085e-121
1.7135427e-120
2.1427157e-120
2.4422621e-120
1.7376648e-120
2.0051787e-120
1.5761403e-120
2.2408203e-121
3.0712281e-121
4.9377033e-122
8.4095922e-122
4.3909592e-126
2.4020052e-124
1.3900951e-122
2.5081106e-121
4.9886968e-120
4.4022035e-120
3.9311816e-121
4.8202513e-121
7.4462713e-122
2.0231596e-121
4.1679664e-121
2.7102796e-120
2.0958363e-120
4.310155e-121
1.3962287e-121
6.7916849e-121
7.0534309e-122
5.830549e-122
5.6313314e-122
3.5968581e-122
5.2160957e-127
2.8598094e-125
1.7614679e-123
4.874898e-122
1.1626236e-120
7.7021676e-121
3.7710395e-122
4.0194352e-122
1.8627545e-121
1.1800395e-121
1.1687719e-121
6.8056699e-121
6.7459808e-121
5.0028417e-122
2.4161214e-122
2.9288023e-121
1.9348933e-122
1.8647571e-122
1.9001456e-122
1.127974e-122
6.5348117e-128
2.4557923e-126
1.1590501e-124
4.2241497e-123
1.1572162e-121
9.6875916e-122
2.4119286e-123
2.8509754e-123
4.2287478e-122
3.6342074e-122
2.7054075e-122
9.1116342e-122
1.2704841e-121
4.023407e-123
2.9840617e-123
3.5407148e-122
3.043078e-123
3.0193959e-123
2.450599e-123
2.3602384e-123
9.0726725e-128
5.9183922e-127
7.3003769e-126
2.6060906e-124
4.1451986e-123
6.290881e-123
2.846714e-124
4.0422047e-123
1.1164586e-122
1.5114367e-122
1.8178145e-122
5.0300362e-123
2.1202691e-122
4.3587326e-124
3.7547285e-124
4.7663979e-123
4.6421879e-124
4.3577856e-124
3.8751175e-124
4.3564967e-124
3.9179471e-128
1.2104729e-126
3.6674498e-127
1.2257314e-125
2.1997323e-124
4.1947733e-124
3.2555251e-125
6.159332e-124
1.7745994e-123
2.4772492e-123
4.6372873e-123
3.663227e-124
1.2862443e-123
3.2290696e-125
3.699907e-125
4.6051781e-124
5.5273856e-125
5.1513784e-125
2.6691583e-125
7.9040569e-125
6.3477327e-129
1.6641785e-127
1.3597147e-128
4.8557816e-127
9.443379e-126
1.1829842e-125
1.9939e-126
4.7680369e-125
1.5239077e-124
2.2447051e-124
5.5508614e-124
1.2941413e-125
6.0861243e-125
1.2357533e-125
7.2823712e-126
3.4587971e-125
5.7254778e-126
7.12936e-126
1.9217547e-126
1.7670337e-125
3.0283641e-130
7.893268e-129
1.2411573e-129
2.8690819e-128
2.9937731e-127
3.7546124e-127
6.3327378e-128
1.7708093e-126
1.0114472e-125
1.1981024e-125
2.8996867e-125
5.1368964e-127
8.3960576e-126
1.0932673e-125
2.9175602e-126
2.0621404e-126
2.6087926e-126
1.6917992e-126
9.1816045e-127
1.5381115e-125
1.0656806e-131
2.4150741e-130
1.4651847e-130
2.0809399e-129
1.1571685e-128
7.8545124e-129
9.6732424e-129
5.184913e-128
2.841966e-127
2.9123339e-127
1.037655e-126
1.4040812e-127
3.6986557e-126
4.9127975e-126
2.564703e-126
3.5513319e-126
7.9802542e-127
4.9273223e-127
4.5531194e-127
5.3815206e-126
2.2833355e-132
3.5579941e-131
6.0046485e-131
2.7106156e-130
2.0029081e-129
1.8718664e-129
8.5042978e-130
3.1867605e-129
2.1264048e-128
9.692383e-129
4.302505e-128
1.3657391e-128
3.9091036e-127
1.4449782e-126
8.1223358e-126
8.365871e-126
7.8598095e-126
1.4703142e-127
3.3197517e-127
1.175801e-126
3.1826918e-105
6.8633027e-106
9.5244581e-107
1.3589948e-105
1.090997e-104
1.9918117e-104
1.2842081e-104
2.0496561e-105
7.4421282e-106
1.0293765e-103
4.9877335e-103
2.3488545e-104
5.7371133e-105
5.001022e-104
1.2582106e-103
4.9987813e-104
2.9676613e-104
2.3102158e-105
6.8164176e-106
1.0027287e-106
9.7711943e-106
1.2671102e-106
3.6494917e-108
4.3069297e-106
8.2595636e-106
6.2475336e-106
3.9136305e-106
6.7482401e-107
1.174255e-105
8.1896588e-105
7.6121934e-104
2.8486085e-105
9.9879213e-107
8.2803512e-105
2.4024522e-104
6.1453428e-105
3.3436792e-105
1.9849308e-106
1.4930236e-104
9.3416515e-106
1.2457847e-106
6.2201108e-108
1.639984e-109
3.5304473e-107
3.7218595e-107
7.4525449e-107
1.1408255e-107
1.2831652e-107
4.1936448e-106
9.48575e-106
6.2828376e-105
2.6062997e-106
1.8357725e-108
1.422959e-105
1.3374466e-104
6.0397204e-105
3.0725755e-105
1.9982717e-105
1.0789105e-104
3.9380916e-106
1.0066939e-107
2.1000034e-109
5.4094301e-110
1.5454558e-108
3.2866877e-108
2.5609389e-107
2.3095819e-108
2.941306e-108
9.7742776e-107
2.5467763e-106
4.7809148e-106
6.6073914e-107
3.0619313e-106
1.9837184e-105
6.1960605e-105
7.9017391e-105
2.2549425e-105
1.9030632e-105
3.2456736e-105
1.9604629e-106
6.8858213e-109
6.7616321e-110
5.3638971e-110
1.1551797e-109
4.9644882e-109
6.3189447e-108
1.3120398e-108
1.0646801e-108
3.9726153e-107
4.9665195e-106
4.2753812e-106
5.8462791e-106
4.6375168e-106
5.7558997e-105
3.3805492e-105
4.3835171e-105
7.6560286e-106
9.0594529e-106
9.397481e-106
5.2644924e-107
1.0643395e-108
7.6425685e-109
3.4312009e-109
5.3256568e-108
2.5064541e-109
3.5149424e-108
3.2835591e-109
4.7891643e-109
2.7564774e-107
3.7043923e-106
4.2781119e-106
3.78755e-106
2.785665e-105
2.5410672e-105
1.6331347e-105
2.397525e-105
2.0214923e-106
2.7471536e-106
1.9744092e-106
1.496129e-107
3.5887648e-110
3.2247622e-110
4.0788689e-109
2.5525866e-108
2.0259998e-107
3.1673478e-108
1.3028505e-107
3.0855767e-108
8.6137869e-108
1.0452787e-106
3.6332202e-106
5.7445876e-106
1.0657721e-105
5.6477496e-106
2.7887212e-106
7.1421066e-106
2.7559837e-107
9.319362e-107
3.5895406e-107
1.6603259e-108
5.2981179e-111
2.7556702e-110
7.0078827e-110
8.8872053e-109
8.1508109e-108
2.3903408e-108
1.2721888e-108
4.1785695e-108
2.4024927e-107
1.6458793e-107
9.3326426e-107
1.0127977e-106
2.6105229e-106
3.1826148e-106
2.0762843e-105
2.5197918e-106
3.008299e-108
1.7023754e-107
4.1606958e-108
3.3104866e-109
1.8788169e-111
4.8921787e-111
7.3932199e-111
9.5843483e-110
1.1954687e-108
3.7325836e-109
3.1854131e-108
1.1109803e-108
1.2562528e-107
2.672234e-108
2.0323552e-107
1.4602572e-107
3.2948673e-107
1.2798546e-106
1.009981e-105
3.3787573e-107
3.9224159e-109
2.1810159e-108
5.1131311e-109
3.07294e-110
3.3186695e-112
7.2303768e-112
7.1141582e-112
3.2767471e-110
7.5160216e-109
1.1040555e-109
8.4980037e-110
1.2784645e-108
3.8499651e-108
2.3940704e-109
2.599683e-108
2.5852815e-108
8.0446558e-108
1.9634508e-107
2.5343759e-106
6.9554845e-108
1.2439322e-109
4.6881234e-109
9.0025991e-110
1.9867329e-110
1.4352356e-112
2.964374e-112
8.3650562e-112
1.1957129e-110
2.6806149e-109
1.6928377e-110
1.3558795e-110
4.089792e-109
7.9674074e-109
4.4092629e-110
3.3440053e-109
3.2235094e-109
1.1811937e-108
3.2371571e-108
4.3105557e-107
1.2778244e-108
4.3663149e-110
9.234046e-110
1.876893e-110
8.3395024e-111
3.9607699e-113
8.5032638e-113
3.2791384e-112
2.6724045e-111
5.5429585e-110
1.5857663e-111
2.5280663e-111
7.062999e-110
9.2313215e-110
2.2267724e-111
2.9493168e-110
4.7235865e-110
2.0524109e-109
4.5421866e-109
5.9221201e-108
2.2359086e-109
1.0657517e-110
1.5324479e-110
2.5402357e-111
2.3227528e-111
4.5135083e-114
1.4614683e-113
6.7469874e-113
3.8776258e-112
7.4893294e-111
1.3078793e-112
2.9307293e-112
7.2271032e-111
1.172844e-110
2.3905667e-112
3.4274843e-111
2.908819e-111
1.6088662e-110
5.79787e-110
3.7840917e-109
1.8093302e-110
2.2847097e-111
1.7931986e-111
4.3389031e-112
4.9677011e-112
4.0546059e-115
1.7224831e-114
9.0458206e-114
3.641312e-113
7.5895815e-112
1.2150916e-113
2.6345971e-113
5.0632147e-112
6.4692926e-112
1.2875388e-113
1.8485078e-112
3.0105836e-112
1.0316118e-111
3.4917115e-111
1.5858636e-110
1.1660609e-111
2.915241e-112
1.1967645e-112
4.2004114e-113
9.1999133e-113
1.8846477e-116
7.9855453e-116
4.8682784e-115
1.8953577e-114
4.9292482e-113
1.2295605e-114
2.0275075e-114
1.9385769e-113
4.338122e-113
1.1321522e-114
1.6410691e-113
1.5915932e-113
1.2019781e-112
3.8095302e-112
1.1042791e-111
1.2661388e-112
2.2414352e-113
7.1247615e-114
3.8174735e-114
1.4681777e-113
6.7311967e-118
3.474803e-117
2.4061376e-116
8.8265734e-116
2.8906614e-114
1.3503181e-115
1.6700281e-115
5.3517698e-115
3.5894852e-114
4.8640628e-116
8.4417981e-115
1.0884381e-114
7.3851866e-114
1.9126643e-113
4.0067306e-113
6.2431297e-114
1.4264797e-114
4.0078712e-115
3.3759763e-115
1.9813678e-114
3.3565877e-119
1.7658567e-118
1.319348e-117
4.8200819e-117
9.79072e-116
1.3566033e-116
1.6750244e-116
1.9103936e-116
2.1994643e-115
4.2386038e-117
6.9822924e-116
8.7593101e-116
6.1471235e-115
1.1381266e-114
1.3419627e-114
2.7273795e-115
7.8252224e-116
2.5352452e-116
3.2938058e-116
2.3425812e-115
1.4164849e-120
5.7737121e-120
5.0991422e-119
1.5710097e-118
2.7598775e-117
1.0961017e-117
8.8550292e-118
4.3073068e-118
7.1353103e-117
3.850249e-118
7.7300053e-117
8.8433682e-117
5.1041824e-116
1.157745e-115
8.6230738e-116
2.1826994e-116
7.6367839e-117
3.5544875e-117
4.8650064e-117
2.6080168e-116
5.6174206e-122
2.1862534e-121
2.2407798e-120
8.2137143e-120
1.3475954e-118
4.580191e-119
7.8990223e-119
1.8084659e-118
2.8732073e-118
2.303847e-119
4.8536896e-118
8.2395073e-118
3.6235369e-117
1.010878e-116
5.5815352e-117
1.7599096e-117
7.1304218e-118
5.0568091e-118
7.6420298e-118
3.271477e-117
4.37597e-123
8.665636e-123
1.4288795e-121
3.7241856e-121
5.3749415e-120
1.4225701e-120
6.6461339e-120
4.4854153e-119
9.3906483e-120
3.3048217e-120
6.3355663e-119
7.7417744e-119
2.7435936e-118
7.4819873e-118
8.1447267e-118
6.0203244e-118
6.6360025e-119
5.3775831e-119
2.1122145e-118
4.8335131e-118
3.2471033e-124
7.4256201e-124
3.128159e-122
1.4022637e-121
1.5873746e-120
1.2024205e-120
5.4240146e-121
4.4707246e-120
4.7978022e-121
2.7867404e-121
4.7462795e-120
1.2141926e-119
1.4399294e-119
6.3720919e-119
3.8174641e-118
3.0555345e-118
1.3841111e-119
1.6865221e-119
6.1774117e-119
7.9663958e-119
2.6616346e-125
1.2498009e-124
5.5350747e-123
3.9324933e-122
6.033129e-121
4.7814079e-121
7.8213448e-122
5.6384027e-121
6.4083891e-121
7.527917e-121
1.1261515e-120
2.0410433e-120
1.1452908e-120
9.1992812e-120
6.9677458e-119
6.5651083e-119
3.0256542e-119
3.7327387e-119
1.7555785e-119
2.2925464e-119
5.0969897e-125
1.9430358e-125
6.4591315e-124
5.4630725e-123
9.6955401e-122
8.5480062e-122
3.8222464e-122
7.9411264e-121
8.6483113e-121
7.9364398e-121
1.5529207e-120
3.2115065e-121
1.4285389e-121
1.2169852e-120
1.0955429e-119
9.012322e-120
1.339608e-119
1.5701452e-119
4.0409833e-120
8.2676733e-120
1.0034947e-125
1.6696225e-126
3.695032e-125
3.6206375e-124
7.5284752e-123
5.9467471e-123
8.4977932e-123
1.5562422e-121
1.9086463e-121
1.7087111e-121
4.6983144e-121
3.0643451e-122
2.5454994e-122
1.89798e-121
1.7108875e-120
1.2798239e-120
3.1759286e-120
3.476381e-120
9.2125098e-121
2.0807636e-120
4.5014397e-125
8.9491368e-127
1.424141e-125
6.9792373e-125
1.0391099e-123
9.968765e-124
1.3004631e-123
1.6174848e-122
2.3994161e-122
2.0708777e-122
7.8409739e-122
2.0897405e-123
3.9268974e-123
1.9808447e-122
1.7286714e-121
1.3084806e-121
5.0012467e-121
4.0987948e-121
1.3180238e-121
6.684163e-121
5.4951835e-126
4.4595351e-127
4.3529475e-126
1.1079646e-125
1.3187281e-124
1.2257913e-124
9.1007499e-125
1.1399054e-123
1.674779e-123
1.2797499e-123
7.511562e-123
4.5218734e-124
3.3264897e-124
1.0317295e-123
1.1209928e-122
6.8858742e-123
4.0103507e-122
2.1991583e-122
2.5743228e-122
1.8566652e-121
4.1006892e-127
6.0885184e-128
9.7096974e-127
8.5077123e-126
2.8992099e-125
3.4754522e-125
7.2713071e-126
6.1264154e-125
1.2802468e-124
9.3054457e-125
3.4979596e-124
4.8767864e-125
1.6768334e-124
1.8358071e-124
8.2479135e-124
8.8558262e-124
2.5623624e-123
7.1845816e-123
3.7646336e-123
4.9171189e-122
1.4455792e-128
4.8576599e-129
1.9465797e-127
1.2044876e-126
2.4263418e-126
2.1120793e-126
2.7772321e-127
2.3250493e-126
4.6600337e-126
3.215944e-126
1.8579436e-125
5.6328689e-125
4.0092335e-125
3.9353351e-124
4.6632605e-123
1.4737207e-124
2.0949673e-124
2.4060792e-123
5.4234814e-124
8.9926487e-123
6.7205992e-130
3.9972815e-130
1.5446301e-128
6.7883733e-128
1.5683534e-127
1.3661235e-127
1.0000007e-127
2.2308918e-127
5.4447559e-127
1.9221171e-127
2.2598865e-126
4.3758898e-125
5.4901483e-125
2.2429656e-124
2.5030668e-123
3.5197061e-125
2.9764299e-125
4.4666236e-124
3.4134097e-124
9.9111569e-124
2.9343555e-131
2.2855756e-131
9.650936e-130
2.9654436e-129
6.2392914e-129
6.1604978e-129
3.0572811e-128
1.6128373e-128
5.0390558e-128
9.2418113e-128
4.7603934e-127
5.9020871e-126
2.9569412e-125
3.3304705e-124
8.7755562e-124
4.7665146e-124
1.3606197e-125
9.1759899e-125
3.4927814e-124
1.5224544e-124
6.5529589e-106
4.0425619e-107
3.5722572e-105
3.8838989e-105
8.2513271e-105
9.2819985e-104
6.9313466e-104
5.434999e-104
1.0154291e-103
7.1744301e-103
1.95716e-102
9.7617555e-103
2.3359072e-103
1.4913387e-103
5.9459901e-104
1.4670064e-104
5.3220518e-105
6.4015069e-104
8.8809798e-104
2.8931186e-105
1.4513458e-106
1.61533e-107
1.8373631e-105
2.0170177e-106
7.2935573e-106
1.3508569e-104
8.2199565e-105
8.9154522e-105
7.7973059e-104
8.2728243e-104
1.6031956e-103
2.2786026e-103
3.1196849e-104
1.5130285e-102
1.5738857e-103
6.2971588e-103
5.588838e-104
3.1741977e-103
5.603381e-104
1.1185796e-105
4.4883333e-107
1.6517385e-107
2.69117e-106
9.6132358e-107
1.0935257e-106
1.1470829e-105
1.7282885e-105
2.8370014e-105
2.4278731e-104
8.2451272e-105
5.747588e-104
1.1168141e-103
1.3620314e-104
1.0092277e-102
5.3607241e-104
4.8399487e-103
4.7172312e-104
2.5736226e-103
2.3008586e-104
1.074621e-105
2.0472269e-108
2.8027614e-108
3.3724709e-107
2.6450362e-107
3.9997508e-107
1.1579722e-106
3.664112e-106
1.2394785e-105
4.7678139e-105
9.5390101e-106
3.0224622e-104
2.7560463e-104
6.1391612e-105
3.1911443e-103
8.6331051e-103
1.3009348e-103
1.4521476e-104
9.9026093e-104
4.1788771e-105
4.5153143e-106
8.0940011e-109
9.7365267e-109
3.4906058e-108
5.4869481e-108
1.0391165e-107
1.3084046e-107
3.9333226e-107
4.0035454e-106
6.9454229e-106
2.7600879e-106
1.1809488e-104
8.330405e-105
6.5931003e-104
8.6750579e-104
5.2818399e-103
4.5928598e-104
3.5990639e-105
2.8268285e-104
2.479197e-105
4.1937925e-105
1.2198202e-108
3.0891136e-109
8.0638357e-109
1.6300319e-108
3.2288388e-108
8.5709619e-108
1.3155687e-107
1.6110503e-106
2.2857438e-105
5.5575336e-106
7.4793194e-104
3.2120754e-105
6.7179457e-104
1.8436125e-104
1.2449277e-103
5.1762517e-105
7.3112722e-106
7.3867803e-105
2.6964135e-105
1.334061e-105
8.6499328e-110
2.7320771e-110
3.0668718e-108
4.5284878e-109
1.2786949e-107
1.8357308e-107
2.4967254e-107
8.7088809e-107
1.4551761e-105
4.1495871e-105
2.4372802e-104
2.3018611e-105
2.4467926e-104
3.8381429e-105
4.6617237e-104
9.8313708e-106
1.3263333e-106
7.3867485e-106
1.023821e-105
2.1112621e-106
1.3313415e-110
3.5361595e-109
5.8909224e-108
2.3905326e-107
1.4996813e-106
1.8117947e-105
1.8905316e-107
9.7231975e-107
4.1771067e-106
2.7836652e-105
4.0372001e-105
4.9649227e-106
2.5714342e-105
7.0357914e-106
1.3419053e-104
9.6561829e-107