/*--------------------------------*- C++ -*----------------------------------*\
| =========                 |                                                 |
| \\      /  F ield         | OpenFOAM: The Open Source CFD Toolbox           |
|  \\    /   O peration     | Version:  1.7.x                                 |
|   \\  /    A nd           | Web:      www.OpenFOAM.com                      |
|    \\/     M anipulation  |                                                 |
\*---------------------------------------------------------------------------*/
FoamFile
{
    version     2.0;
    format      ascii;
    class       volScalarField;
    location    "0.006";
    object      k;
}
// * * * * * * * * * * * * * * * * * * * * * * * * * * * * * * * * * * * * * //

dimensions      [0 2 -2 0 0 0 0];

internalField   nonuniform List<scalar> 
206988
(
0.42635427
0.16747729
0.05326148
0.015335788
0.0030739059
0.00049599627
0.00011928334
7.0931007e-05
6.5599662e-05
6.6007994e-05
6.5741692e-05
6.6916121e-05
6.7781058e-05
6.8282022e-05
6.9638316e-05
7.1233721e-05
5.6276175e-05
0.001798686
0.016007164
0.25324156
0.32547785
0.11859045
0.030967483
0.008144911
0.0014881132
0.00027090705
8.677886e-05
6.7777401e-05
6.4382041e-05
6.5630386e-05
6.4992575e-05
6.7302522e-05
6.7141975e-05
6.8658512e-05
6.9204721e-05
7.073088e-05
7.0772026e-05
0.0014830647
0.029663457
0.29968904
0.24605426
0.070804935
0.01600131
0.003312654
0.00056190393
0.00012737595
6.8390167e-05
6.399538e-05
6.3177476e-05
6.5379789e-05
6.3562473e-05
6.6698897e-05
6.5993317e-05
6.8466423e-05
6.8465995e-05
7.0032913e-05
6.7611254e-05
0.0011703431
0.027283515
0.31451462
0.18777655
0.036500447
0.0071241492
0.0011411488
0.00020312443
7.9298411e-05
6.3571824e-05
6.3732151e-05
6.229685e-05
6.5799062e-05
6.1919508e-05
6.6514508e-05
6.4959659e-05
6.8201114e-05
6.7249324e-05
6.9451557e-05
6.2708148e-05
0.00075173745
0.033057016
0.31072832
0.14823325
0.019543684
0.0024784521
0.00036001007
9.354193e-05
6.5652256e-05
5.9932718e-05
6.2907213e-05
5.805253e-05
6.4441197e-05
5.5363585e-05
6.5228413e-05
6.0438583e-05
6.6857373e-05
6.282887e-05
6.8502036e-05
6.061203e-05
0.00042243498
0.030458123
0.30511356
0.12352152
0.010192948
0.0008115434
0.00013082555
6.5932928e-05
6.0493345e-05
5.9815833e-05
6.1004301e-05
5.8986322e-05
6.1749917e-05
5.9424707e-05
6.4723844e-05
5.8444198e-05
6.4355526e-05
6.142275e-05
6.5685243e-05
7.0521132e-05
0.00052149611
0.028727543
0.2932788
0.10866553
0.0071861964
0.00035066666
7.7896446e-05
6.2291092e-05
6.0410315e-05
6.1103599e-05
6.0342803e-05
6.0987101e-05
6.1884169e-05
5.856474e-05
6.1476351e-05
6.0868472e-05
6.3791386e-05
6.0924919e-05
6.3274666e-05
9.8190806e-05
0.00091967511
0.030264934
0.27448118
0.09600903
0.0049919131
0.00018332721
6.3176993e-05
5.9708716e-05
5.9551752e-05
5.9929785e-05
6.0205658e-05
5.9323543e-05
6.0963432e-05
5.9095766e-05
6.0784745e-05
6.0544542e-05
6.1650791e-05
6.2007474e-05
6.2465796e-05
8.6948074e-05
0.00064901799
0.025782343
0.25413681
0.085439342
0.0044562827
0.00014526273
5.983662e-05
5.9131957e-05
5.9313711e-05
5.9000272e-05
5.9907415e-05
5.8761594e-05
5.9842916e-05
5.8326492e-05
6.1515282e-05
6.0348762e-05
6.119096e-05
6.1352926e-05
6.2012741e-05
8.728072e-05
0.00065099161
0.0204015
0.23714278
0.076785025
0.0038503777
0.00013317436
6.0566992e-05
5.9635566e-05
5.9867862e-05
5.9076531e-05
6.0056423e-05
5.8787068e-05
5.9983826e-05
5.9309269e-05
6.0693879e-05
6.0267224e-05
6.0905537e-05
6.1368242e-05
6.1413927e-05
7.6058926e-05
0.00052246302
0.01754072
0.22157745
0.069557898
0.0032019552
0.00011669838
6.1611444e-05
6.1023734e-05
6.1284262e-05
6.0444574e-05
6.0546246e-05
5.990958e-05
6.0076191e-05
5.990853e-05
6.0620275e-05
6.0118863e-05
6.017784e-05
6.082091e-05
6.1611893e-05
7.1540043e-05
0.00035462524
0.014427671
0.20513288
0.061652053
0.0026914587
9.9836252e-05
6.0985791e-05
6.0623559e-05
6.0872389e-05
6.0410992e-05
6.0624252e-05
6.0681249e-05
6.050936e-05
5.9929587e-05
6.0304935e-05
5.9705161e-05
6.0908244e-05
6.0300604e-05
6.1641449e-05
7.0647395e-05
0.00038780854
0.012051099
0.18922176
0.056211357
0.0024359817
9.1347693e-05
6.0603817e-05
6.0533442e-05
6.0467544e-05
6.0362747e-05
6.056229e-05
6.0737441e-05
6.0521006e-05
6.0784733e-05
6.0751255e-05
5.9652525e-05
6.1868635e-05
6.0052356e-05
6.1843879e-05
6.7487418e-05
0.00035936673
0.011155565
0.17322958
0.051099652
0.0023510902
9.4360923e-05
6.1977132e-05
6.1779153e-05
6.1577701e-05
6.1662475e-05
6.142514e-05
6.1488722e-05
6.1097117e-05
6.2367485e-05
6.1147353e-05
6.0534676e-05
6.2172898e-05
6.0403334e-05
6.3040515e-05
7.2774855e-05
0.00038454462
0.0091813238
0.15834741
0.045657113
0.0020653595
8.9458526e-05
6.1355541e-05
6.1042597e-05
6.1266116e-05
6.0985254e-05
6.1262774e-05
6.147643e-05
6.1380072e-05
6.2260834e-05
6.1859128e-05
6.0985677e-05
6.1941692e-05
6.1031951e-05
6.2861233e-05
7.5820886e-05
0.00048213842
0.010477118
0.14658256
0.040928385
0.0018809441
8.670365e-05
6.0690516e-05
6.0669429e-05
6.0975125e-05
6.085256e-05
6.0884106e-05
6.1806829e-05
6.1088952e-05
6.2260029e-05
6.2198039e-05
6.1314654e-05
6.2126576e-05
6.1545464e-05
6.3526221e-05
7.383246e-05
0.0004370396
0.009790634
0.13692931
0.036920742
0.0017560344
8.9663316e-05
6.2360781e-05
6.1995409e-05
6.232517e-05
6.2084704e-05
6.2029505e-05
6.2545674e-05
6.1889723e-05
6.2889713e-05
6.2337799e-05
6.2224228e-05
6.2470401e-05
6.2608816e-05
6.3793134e-05
7.6549754e-05
0.00047894994
0.0095850823
0.12685264
0.032751855
0.0014682502
8.3249119e-05
6.1565425e-05
6.159163e-05
6.1573955e-05
6.1561258e-05
6.1817753e-05
6.2200297e-05
6.1165121e-05
6.3100714e-05
6.1471362e-05
6.3106971e-05
6.2325731e-05
6.3169643e-05
6.3264526e-05
7.374029e-05
0.00042526108
0.0092802279
0.11671586
0.029501403
0.0013121273
7.8817537e-05
6.1029912e-05
6.1165901e-05
6.0825865e-05
6.1150833e-05
6.117973e-05
6.1795207e-05
6.1244873e-05
6.2914975e-05
6.1735459e-05
6.2955184e-05
6.2734581e-05
6.3230198e-05
6.3585169e-05
7.2370814e-05
0.00036487553
0.0080573445
0.1064834
0.026386565
0.0012067386
7.885458e-05
6.2005578e-05
6.1753505e-05
6.1878791e-05
6.1648465e-05
6.174242e-05
6.1654991e-05
6.1951258e-05
6.2109449e-05
6.3229769e-05
6.2702641e-05
6.3329966e-05
6.2894153e-05
6.3803733e-05
7.1998485e-05
0.00034232954
0.0075419685
0.096449611
0.023393609
0.0010941471
7.9326946e-05
6.2657311e-05
6.2277949e-05
6.2395867e-05
6.2350941e-05
6.1884336e-05
6.2080745e-05
6.2006147e-05
6.2724351e-05
6.3103584e-05
6.2916253e-05
6.3179291e-05
6.2801327e-05
6.350618e-05
7.1109584e-05
0.0003245995
0.0069088553
0.08669799
0.020526199
0.00092798622
7.4417507e-05
6.0848242e-05
6.1113256e-05
6.1154994e-05
6.1556349e-05
6.0761035e-05
6.1736546e-05
6.0982475e-05
6.2734742e-05
6.1664018e-05
6.2692204e-05
6.2376155e-05
6.2636449e-05
6.3143483e-05
6.9500732e-05
0.00029395824
0.0060373091
0.077022564
0.018186448
0.00082944428
7.1664183e-05
5.9841792e-05
6.0022769e-05
6.0028801e-05
6.0349197e-05
6.0294434e-05
6.1276894e-05
5.9589495e-05
6.1856469e-05
6.0857258e-05
6.1828686e-05
6.1711131e-05
6.216632e-05
6.2711559e-05
6.7914044e-05
0.00025162218
0.0053017964
0.067508151
0.015950651
0.00073934127
7.2463914e-05
6.1164462e-05
6.1139739e-05
6.0961016e-05
6.1277754e-05
6.0528453e-05
6.1872135e-05
6.0211556e-05
6.1877185e-05
6.1257095e-05
6.1866992e-05
6.1707519e-05
6.2125701e-05
6.2339726e-05
6.7157181e-05
0.00022840705
0.0046151668
0.058497043
0.013769755
0.00062959714
6.8399735e-05
5.9513572e-05
5.9813352e-05
5.9554814e-05
6.0234607e-05
5.9297703e-05
6.0797944e-05
5.9626982e-05
6.1209542e-05
6.0638405e-05
6.150516e-05
6.1192361e-05
6.1694074e-05
6.1755776e-05
6.5818625e-05
0.0002029462
0.0039410469
0.050598851
0.011836588
0.00054951751
6.6464345e-05
5.8513253e-05
5.8918809e-05
5.8532317e-05
5.9219156e-05
5.8589017e-05
5.9429853e-05
5.8892857e-05
6.0092819e-05
5.9538583e-05
6.0607652e-05
6.0104455e-05
6.072814e-05
6.0787723e-05
6.4452305e-05
0.00017753362
0.0033121133
0.042795632
0.01007351
0.00047455811
6.7370964e-05
6.0008319e-05
6.0254254e-05
5.9875687e-05
6.0374759e-05
5.9754941e-05
6.0312789e-05
5.927439e-05
6.0523651e-05
5.9892287e-05
6.0741217e-05
6.0255359e-05
6.0743035e-05
6.0668102e-05
6.3795181e-05
0.00016077082
0.0028395202
0.036992051
0.0083224202
0.00038645306
6.3517929e-05
5.8433828e-05
5.8710705e-05
5.85027e-05
5.9105149e-05
5.8674307e-05
5.9547356e-05
5.8049428e-05
5.9969242e-05
5.9163326e-05
6.0287197e-05
5.9856696e-05
6.0379336e-05
6.0265258e-05
6.2966402e-05
0.00014598314
0.0023736009
0.030393271
0.0070190356
0.00032870628
6.1941994e-05
5.7720095e-05
5.7893955e-05
5.7689358e-05
5.8300419e-05
5.7782139e-05
5.8836548e-05
5.7592327e-05
5.9288172e-05
5.8813898e-05
5.9551041e-05
5.9297704e-05
5.9695617e-05
5.9612243e-05
6.2108334e-05
0.00013279155
0.0020182538
0.02544349
0.0054678637
0.00028259111
6.3032177e-05
5.8963761e-05
5.9199022e-05
5.8822354e-05
5.9563508e-05
5.8773933e-05
5.9928388e-05
5.83307e-05
6.0084947e-05
5.9258941e-05
6.0053883e-05
5.9891832e-05
5.9951376e-05
5.9772041e-05
6.1183616e-05
0.00010547807
0.0015284412
0.02339273
0.32229292
0.064549061
0.020344794
0.0049915304
0.00097173403
0.00015339055
3.0815349e-05
1.676705e-05
1.5347009e-05
1.4822298e-05
1.530304e-05
1.5584224e-05
1.6680209e-05
1.7135514e-05
1.7954625e-05
1.8378872e-05
3.4843561e-05
3.0654606e-05
0.016607757
0.25694275
0.30450609
0.061964412
0.011588959
0.0025035889
0.00043677289
7.3934731e-05
2.1116703e-05
1.5180146e-05
1.5697685e-05
1.464138e-05
1.5059145e-05
1.585965e-05
1.6715507e-05
1.6586297e-05
1.6719614e-05
1.7232598e-05
3.5758949e-05
0.001228024
0.023872232
0.30062718
0.24629693
0.043977403
0.0063045372
0.0010186971
0.00015799593
3.2310433e-05
1.6658423e-05
1.4610458e-05
1.5320604e-05
1.4363318e-05
1.5503929e-05
1.5942948e-05
1.6694428e-05
1.6841375e-05
1.6888002e-05
1.8317485e-05
4.1315762e-05
0.0021411347
0.029053131
0.3188869
0.19118547
0.024208792
0.0025576234
0.00031766848
5.4169003e-05
1.9026314e-05
1.5101281e-05
1.4493952e-05
1.5365624e-05
1.5394094e-05
1.4979991e-05
1.646604e-05
1.6532942e-05
1.6377306e-05
1.6553279e-05
1.7992274e-05
2.2450345e-05
0.002085445
0.017931591
0.30956411
0.15285291
0.013349319
0.0010000838
0.00010135838
2.2330997e-05
1.5462605e-05
1.407603e-05
1.5082359e-05
1.3435368e-05
1.4966129e-05
1.4216282e-05
1.8909367e-05
1.5203172e-05
1.6607332e-05
1.5569058e-05
1.9574227e-05
6.4557571e-05
0.002213158
0.033892979
0.31466103
0.12551709
0.007085186
0.0003437342
3.9118e-05
1.5022265e-05
1.6280765e-05
1.3038535e-05
1.8717117e-05
1.2649071e-05
1.3405194e-05
1.3574844e-05
1.9862213e-05
1.4235543e-05
1.6140919e-05
1.4994283e-05
2.4101696e-05
0.0001541783
0.0023557264
0.032099105
0.3020644
0.1115435
0.0053534718
0.00015533359
2.1196218e-05
1.436804e-05
1.468769e-05
1.4026514e-05
1.6528403e-05
1.424341e-05
1.6584924e-05
1.3322625e-05
1.7384713e-05
1.5161323e-05
1.7790269e-05
1.3879905e-05
1.8684168e-05
8.8371086e-05
0.0014305514
0.028237271
0.28043026
0.098373407
0.0039507329
8.657518e-05
1.49622e-05
1.3409281e-05
1.3193994e-05
1.3884178e-05
1.4147762e-05
1.3690478e-05
1.551342e-05
1.2981238e-05
1.6107586e-05
1.3934736e-05
1.6641414e-05
1.4405709e-05
1.6446836e-05
5.5294381e-05
0.00077636289
0.017526991
0.25804419
0.088111721
0.0032902605
6.3357953e-05
1.407353e-05
1.3654813e-05
1.3329533e-05
1.3791508e-05
1.3701212e-05
1.3685807e-05
1.4130536e-05
1.2910765e-05
1.5956399e-05
1.3143918e-05
1.5090639e-05
1.4859184e-05
1.5206569e-05
3.4997582e-05
0.00060813103
0.016783426
0.23761496
0.079668036
0.0028693841
5.5426142e-05
1.3806513e-05
1.3422334e-05
1.347996e-05
1.3419394e-05
1.3489641e-05
1.3552385e-05
1.4139621e-05
1.2561789e-05
1.5624288e-05
1.339405e-05
1.4234191e-05
1.527343e-05
1.6107728e-05
2.257939e-05
0.00029714124
0.011219164
0.22059639
0.070922914
0.0023637282
4.449569e-05
1.3742928e-05
1.3158817e-05
1.3457004e-05
1.3435671e-05
1.3228953e-05
1.3009153e-05
1.4215881e-05
1.2897711e-05
1.5150024e-05
1.3537453e-05
1.417037e-05
1.4635848e-05
1.5844474e-05
2.0964944e-05
0.00021771689
0.0098652022
0.20742396
0.063798281
0.002127177
4.043168e-05
1.3113044e-05
1.278612e-05
1.3186136e-05
1.3281987e-05
1.2813964e-05
1.3018096e-05
1.4977786e-05
1.2643455e-05
1.344559e-05
1.3785894e-05
1.3986703e-05
1.4297625e-05
1.4681013e-05
1.9658472e-05
0.00019356311
0.0085452974
0.19345322
0.057244617
0.0016968985
3.2819589e-05
1.3535311e-05
1.3176682e-05
1.362518e-05
1.3280142e-05
1.365896e-05
1.2866118e-05
1.4136781e-05
1.3469316e-05
1.3328288e-05
1.3650319e-05
1.3858549e-05
1.4014334e-05
1.4717227e-05
2.3479025e-05
0.000244462
0.0069242012
0.17908877
0.052244928
0.001580756
3.0720442e-05
1.335538e-05
1.3312187e-05
1.3185924e-05
1.3327389e-05
1.3188468e-05
1.3055993e-05
1.3531186e-05
1.3520947e-05
1.3448266e-05
1.3638993e-05
1.4156777e-05
1.3813779e-05
1.5843571e-05
2.187129e-05
0.00027403465
0.0077918539
0.16539015
0.046752606
0.0014089667
2.7793763e-05
1.2812217e-05
1.2743301e-05
1.2750831e-05
1.2847752e-05
1.2721628e-05
1.281183e-05
1.2994838e-05
1.3031642e-05
1.3328762e-05
1.3142811e-05
1.4554951e-05
1.375357e-05
1.5556275e-05
2.0455734e-05
0.00023044226
0.0069876793
0.15243039
0.041809675
0.001243679
2.6628325e-05
1.3129231e-05
1.3124416e-05
1.350176e-05
1.3096499e-05
1.3249264e-05
1.3186755e-05
1.321184e-05
1.3163203e-05
1.3490184e-05
1.3466452e-05
1.36945e-05
1.4497096e-05
1.4319094e-05
2.0768978e-05
0.00022952052
0.0066118362
0.14188622
0.037622029
0.0011272038
2.6055082e-05
1.2986277e-05
1.3143493e-05
1.3091509e-05
1.3120741e-05
1.2911248e-05
1.3137757e-05
1.2524534e-05
1.3221206e-05
1.3178518e-05
1.3579642e-05
1.3642506e-05
1.4239961e-05
1.3675864e-05
2.0459732e-05
0.000215705
0.0064475888
0.13150161
0.033676542
0.0009568003
2.3028658e-05
1.239923e-05
1.2329046e-05
1.2457281e-05
1.2411633e-05
1.2728864e-05
1.249028e-05
1.2615348e-05
1.2902611e-05
1.2807949e-05
1.3434451e-05
1.3972872e-05
1.4530544e-05
1.4094508e-05
2.0357791e-05
0.00021428329
0.0060223785
0.1208498
0.030187127
0.00085277699
2.2312528e-05
1.2725171e-05
1.268503e-05
1.2820635e-05
1.2783985e-05
1.2650591e-05
1.2777824e-05
1.2335769e-05
1.3222257e-05
1.2736717e-05
1.3890696e-05
1.3234025e-05
1.453594e-05
1.3705892e-05
1.9803109e-05
0.0001857909
0.0055321457
0.11039909
0.026772911
0.0007701347
2.1654864e-05
1.2551461e-05
1.2537e-05
1.2763921e-05
1.2630222e-05
1.2756161e-05
1.2567286e-05
1.27197e-05
1.2737106e-05
1.3052562e-05
1.3563785e-05
1.3318672e-05
1.4308604e-05
1.335474e-05
1.9161729e-05
0.00016722982
0.0048411239
0.10001283
0.023666803
0.0006523744
2.0013454e-05
1.2407107e-05
1.2318617e-05
1.2551352e-05
1.2344053e-05
1.2452406e-05
1.255621e-05
1.2357031e-05
1.3032697e-05
1.2567609e-05
1.3434134e-05
1.3254954e-05
1.3866687e-05
1.3276181e-05
1.8181818e-05
0.00015058568
0.00446175
0.089599359
0.020969639
0.00058082535
1.8975409e-05
1.2240851e-05
1.2158687e-05
1.2403855e-05
1.2209295e-05
1.2270484e-05
1.223067e-05
1.2499303e-05
1.3091111e-05
1.2332192e-05
1.3718165e-05
1.2630698e-05
1.3980029e-05
1.2880475e-05
1.7553829e-05
0.00013272634
0.0039332493
0.079110124
0.018403077
0.00049982322
1.8087858e-05
1.2318702e-05
1.2258334e-05
1.228677e-05
1.2231845e-05
1.2215638e-05
1.3071766e-05
1.2109538e-05
1.362528e-05
1.2435233e-05
1.3507271e-05
1.2638788e-05
1.403069e-05
1.2757614e-05
1.6646935e-05
0.00010269223
0.0030564858
0.069153889
0.016244732
0.00043991264
1.7373029e-05
1.2353153e-05
1.2281679e-05
1.232644e-05
1.2265062e-05
1.2216622e-05
1.3110983e-05
1.213072e-05
1.3484974e-05
1.2285301e-05
1.3212496e-05
1.2481487e-05
1.3845755e-05
1.2477615e-05
1.5991535e-05
8.4606952e-05
0.0025477199
0.059705048
0.01417876
0.00038249253
1.6236561e-05
1.1844248e-05
1.1799855e-05
1.1862834e-05
1.1881527e-05
1.1763876e-05
1.2528556e-05
1.1847854e-05
1.3152608e-05
1.2048829e-05
1.2914478e-05
1.2199017e-05
1.3602585e-05
1.2232528e-05
1.5563039e-05
7.5310386e-05
0.0021898972
0.051357559
0.012090588
0.00032804697
1.5946035e-05
1.2063416e-05
1.2095152e-05
1.2034492e-05
1.2333465e-05
1.2063715e-05
1.2881437e-05
1.2026547e-05
1.324854e-05
1.2098977e-05
1.3273251e-05
1.2129922e-05
1.3485699e-05
1.2164051e-05
1.5101979e-05
6.5833445e-05
0.0018616781
0.043441255
0.010358453
0.00027607364
1.5166218e-05
1.190953e-05
1.1916823e-05
1.1884309e-05
1.2127623e-05
1.1936981e-05
1.2840651e-05
1.1940347e-05
1.3098073e-05
1.2005735e-05
1.3159499e-05
1.2023158e-05
1.3170966e-05
1.2069066e-05
1.4228527e-05
5.5917322e-05
0.0015496293
0.037452832
0.0086601238
0.00022822379
1.4321186e-05
1.1641901e-05
1.1644454e-05
1.1648741e-05
1.1792865e-05
1.1691805e-05
1.2335077e-05
1.1709634e-05
1.2725643e-05
1.1841316e-05
1.2940473e-05
1.1898546e-05
1.30342e-05
1.1954485e-05
1.4149147e-05
4.9878311e-05
0.0012949068
0.030726366
0.0072612378
0.00018786792
1.3935542e-05
1.1815758e-05
1.1814415e-05
1.1802945e-05
1.1867947e-05
1.1816e-05
1.2589686e-05
1.1804942e-05
1.277818e-05
1.18969e-05
1.2912058e-05
1.1939515e-05
1.2867291e-05
1.1929843e-05
1.3255507e-05
4.2782202e-05
0.001073749
0.025895567
0.0057047306
0.00016089639
1.3772089e-05
1.1732037e-05
1.1766016e-05
1.1740527e-05
1.1868846e-05
1.1779933e-05
1.2481846e-05
1.1823055e-05
1.2787068e-05
1.1902821e-05
1.2875986e-05
1.1953448e-05
1.2722347e-05
1.1914435e-05
1.2580759e-05
3.001392e-05
0.00077630051
0.023200504
0.31856793
0.055092814
0.018874255
0.0047270089
0.00094638596
0.00015797093
2.8776226e-05
1.3109994e-05
1.095879e-05
1.0935646e-05
1.1563266e-05
1.1375567e-05
1.1720473e-05
1.1889204e-05
1.2455903e-05
1.2108921e-05
9.5861163e-06
0.00078051559
0.011580821
0.25172696
0.30325939
0.054280909
0.0098829318
0.002223467
0.00041669899
7.0432969e-05
1.6957767e-05
1.1484681e-05
1.1097342e-05
1.0726951e-05
1.1228096e-05
1.1167085e-05
1.1422827e-05
1.1319176e-05
1.1739995e-05
1.2527626e-05
1.5326641e-06
0.00075402472
0.028579308
0.30574723
0.24744716
0.041780886
0.0055391597
0.00089190438
0.00014003777
2.922477e-05
1.2415095e-05
1.0792074e-05
1.072163e-05
1.0558245e-05
1.1078203e-05
1.0804271e-05
1.1058433e-05
1.147512e-05
1.1647956e-05
1.2258019e-05
2.9711274e-05
0.00061893508
0.039741097
0.31766736
0.19230667
0.024092788
0.0027182936
0.00032567046
4.6902434e-05
1.5179528e-05
1.1414281e-05
1.0528189e-05
1.0843699e-05
1.054153e-05
1.0530459e-05
1.0776686e-05
1.0772758e-05
1.1310614e-05
1.1459145e-05
1.1731666e-05
1.8816042e-05
0.0008945498
0.028902671
0.3094751
0.15405386
0.013264287
0.0011415818
0.00010510326
1.92539e-05
1.2042312e-05
1.1350496e-05
1.0644668e-05
1.0827063e-05
1.0901866e-05
1.1022827e-05
1.0882172e-05
1.0579382e-05
1.1331448e-05
1.1580141e-05
1.145651e-05
1.8322151e-05
0.00054422743
0.03190727
0.30824148
0.12872796
0.0065945988
0.00036451539
3.6023464e-05
1.2568816e-05
1.1573629e-05
1.1254538e-05
1.1191321e-05
1.063448e-05
1.0731469e-05
1.0761854e-05
1.1380267e-05
1.0519516e-05
1.1798663e-05
1.1379807e-05
1.2285754e-05
3.0922326e-05
5.4478816e-05
0.017649206
0.29632688
0.11095218
0.00508017
0.00015914981
1.6983603e-05
1.0782936e-05
1.0894042e-05
1.0791938e-05
1.1103114e-05
1.0622395e-05
1.1217868e-05
1.073725e-05
1.1000662e-05
1.0550359e-05
1.1280636e-05
1.1109086e-05
1.3537272e-05
8.888278e-05
0.0024060872
0.036634647
0.28091906
0.099893226
0.0037251762
8.1896587e-05
1.2062025e-05
1.054319e-05
1.0722343e-05
1.0636282e-05
1.065065e-05
1.051394e-05
1.1260717e-05
1.0498723e-05
1.1152946e-05
1.0857433e-05
1.1035139e-05
1.0832701e-05
1.2611643e-05
5.240347e-05
0.0012598172
0.025624337
0.26039276
0.089272548
0.0031281097
5.0322578e-05
1.1204166e-05
1.0629684e-05
1.0668212e-05
1.0485897e-05
1.0539466e-05
1.0592321e-05
1.0820021e-05
1.0337979e-05
1.1118432e-05
1.103453e-05
1.0805456e-05
1.0572028e-05
1.2004836e-05
3.3457154e-05
0.00066694032
0.018880563
0.24353078
0.080005022
0.0028990696
5.5868127e-05
1.0915386e-05
1.0644541e-05
1.0663254e-05
1.0616872e-05
1.0492235e-05
1.0508394e-05
1.0846906e-05
1.036652e-05
1.0768426e-05
1.124063e-05
1.0943333e-05
1.0713148e-05
1.1100301e-05
2.3912921e-05
0.00035960494
0.013266039
0.22866466
0.072404694
0.0023494356
4.2781496e-05
1.0842604e-05
1.0760059e-05
1.0537833e-05
1.0611438e-05
1.0616379e-05
1.0519639e-05
1.0624465e-05
1.0452169e-05
1.0624906e-05
1.1083192e-05
1.0976721e-05
1.1396554e-05
1.195153e-05
2.1271788e-05
0.00031116329
0.011501719
0.2133766
0.065553562
0.0020384034
3.556295e-05
1.0674869e-05
1.051644e-05
1.0433967e-05
1.0464533e-05
1.0680119e-05
1.0287679e-05
1.0773581e-05
1.0523693e-05
1.049845e-05
1.0676645e-05
1.0788687e-05
1.1547564e-05
1.1424224e-05
1.8489342e-05
0.0002512729
0.010047999
0.19759876
0.058739468
0.0017873643
3.0855042e-05
1.0475573e-05
1.0469959e-05
1.0456863e-05
1.0480545e-05
1.0385171e-05
1.0241356e-05
1.0573745e-05
1.068214e-05
1.0417815e-05
1.0582083e-05
1.0590825e-05
1.1516392e-05
1.1240034e-05
2.2646729e-05
0.0002889661
0.0078670623
0.18183386
0.052956137
0.0015935391
3.067947e-05
1.0555884e-05
1.0564535e-05
1.0577238e-05
1.0479709e-05
1.0361366e-05
1.0232085e-05
1.0358832e-05
1.0565824e-05
1.0420415e-05
1.0670804e-05
1.106366e-05
1.1789592e-05
1.1205154e-05
2.2206818e-05
0.00034059845
0.0085555537
0.1667631
0.048151542
0.0014437333
2.6225815e-05
1.0323372e-05
1.03304e-05
1.0404531e-05
1.028484e-05
1.0313259e-05
1.0294444e-05
1.0250387e-05
1.0467341e-05
1.0342658e-05
1.0835859e-05
1.1032568e-05
1.1795078e-05
1.0902893e-05
1.8930562e-05
0.00023990077
0.0079556602
0.15339572
0.042856753
0.0012777781
2.4731252e-05
1.0298873e-05
1.0364483e-05
1.0251879e-05
1.0266595e-05
1.0421825e-05
1.0373485e-05
1.0307976e-05
1.0596068e-05
1.0565822e-05
1.090593e-05
1.0602362e-05
1.1600166e-05
1.0823154e-05
2.2765733e-05
0.00026513088
0.0064637123
0.14289516
0.038252294
0.0011398343
2.456903e-05
1.0440857e-05
1.0456313e-05
1.0375003e-05
1.0353214e-05
1.0242547e-05
1.0391573e-05
1.0194683e-05
1.0566685e-05
1.0337578e-05
1.0833353e-05
1.0474172e-05
1.1550544e-05
1.0607667e-05
2.0711955e-05
0.00029634044
0.0073372825
0.13279588
0.03419591
0.00098143897
2.2152012e-05
1.0397858e-05
1.0330612e-05
1.0257369e-05
1.0203911e-05
1.018605e-05
1.0317476e-05
1.0163785e-05
1.0660435e-05
1.0335029e-05
1.1094972e-05
1.1000711e-05
1.1494535e-05
1.0746645e-05
1.8634345e-05
0.00023722916
0.0062572019
0.1219994
0.030936952
0.00086414646
2.0186735e-05
1.0495866e-05
1.0295028e-05
1.037153e-05
1.0233574e-05
1.0186846e-05
1.0409728e-05
1.0176314e-05
1.0686357e-05
1.0289997e-05
1.0975219e-05
1.0642313e-05
1.1300424e-05
1.0612707e-05
1.6986753e-05
0.00018773379
0.005315928
0.11129293
0.027558429
0.00078812964
1.9884684e-05
1.0195001e-05
1.0259563e-05
1.0206301e-05
1.0309816e-05
1.0156125e-05
1.0371341e-05
1.0173325e-05
1.0592039e-05
1.0248828e-05
1.0896494e-05
1.0390757e-05
1.122365e-05
1.044818e-05
1.6267374e-05
0.00017107497
0.0050520052
0.10081992
0.024274015
0.0006576901
1.795367e-05
1.0186637e-05
1.0250216e-05
1.0166801e-05
1.0240219e-05
1.0195421e-05
1.0333628e-05
1.0113946e-05
1.0554976e-05
1.0180016e-05
1.0699105e-05
1.038744e-05
1.1016142e-05
1.0401077e-05
1.6400818e-05
0.00016007694
0.0044134168
0.090413338
0.02171481
0.0005920336
1.6884832e-05
1.0174445e-05
1.0235523e-05
1.0110448e-05
1.0255908e-05
1.0148617e-05
1.0326086e-05
1.0117441e-05
1.0559003e-05
1.0166473e-05
1.0544851e-05
1.0195766e-05
1.0660421e-05
1.0240759e-05
1.5011982e-05
0.00013861448
0.0039898513
0.08015901
0.019130229
0.00052701545
1.6517756e-05
1.0132204e-05
1.0231387e-05
1.0075705e-05
1.0198134e-05
1.0107078e-05
1.0253735e-05
1.0077288e-05
1.0445045e-05
1.0097027e-05
1.0534343e-05
1.0233731e-05
1.0700372e-05
1.0428978e-05
1.3619882e-05
0.0001077923
0.0032033371
0.069937597
0.016808585
0.00045555021
1.5955535e-05
1.0265649e-05
1.0242513e-05
1.0171865e-05
1.0229451e-05
1.010974e-05
1.026878e-05
1.0083815e-05
1.0468028e-05
1.027598e-05
1.0628891e-05
1.036304e-05
1.0779535e-05
1.0628313e-05
1.2940952e-05
9.2475746e-05
0.0027244638
0.06021568
0.014728732
0.00039306122
1.4967851e-05
1.0277444e-05
1.0262798e-05
1.0179607e-05
1.0146333e-05
1.0093727e-05
1.016694e-05
1.0082514e-05
1.042033e-05
1.0292145e-05
1.0644188e-05
1.0288439e-05
1.0492856e-05
1.0512164e-05
1.2486602e-05
7.9096765e-05
0.0024122286
0.052153048
0.012670289
0.00034642501
1.4562404e-05
1.0094063e-05
1.0196126e-05
1.007262e-05
1.0169873e-05
1.0075589e-05
1.0186153e-05
1.0162998e-05
1.0239252e-05
1.0196793e-05
1.0424548e-05
1.0364762e-05
1.0402449e-05
1.0277171e-05
1.2442843e-05
6.5902165e-05
0.0019085343
0.044218736
0.010869751
0.00028909751
1.3794148e-05
1.0232292e-05
1.0097807e-05
1.0061676e-05
1.0256186e-05
1.0088526e-05
1.0200039e-05
1.0069818e-05
1.0225609e-05
1.0053364e-05
1.0197509e-05
1.0255119e-05
1.0304992e-05
1.0130089e-05
1.1946782e-05
5.7638184e-05
0.0016105601
0.038134678
0.00914365
0.00023558226
1.3201567e-05
1.0187535e-05
1.0059272e-05
1.0048701e-05
1.0188017e-05
1.0074741e-05
1.0249419e-05
1.0112937e-05
1.0281146e-05
1.0052237e-05
1.0204448e-05
1.0134098e-05
1.0512031e-05
1.009985e-05
1.1740459e-05
5.0295023e-05
0.0013238862
0.031453264
0.0077694222
0.00019691762
1.2556932e-05
1.0079923e-05
1.0085095e-05
1.0099751e-05
1.0189363e-05
1.0148663e-05
1.025227e-05
1.0086915e-05
1.0286716e-05
1.0051807e-05
1.0283474e-05
1.0077723e-05
1.0479793e-05
1.0074106e-05
1.1429941e-05
4.3249166e-05
0.0011127143
0.02622637
0.0062003935
0.0001700783
1.2559402e-05
1.012595e-05
1.0090116e-05
1.0046299e-05
1.014428e-05
1.0082984e-05
1.0193018e-05
1.0056637e-05
1.0279653e-05
1.0070205e-05
1.0370699e-05
1.0090696e-05
1.0453827e-05
1.0090873e-05
1.1037152e-05
2.9543394e-05
0.00081629801
0.025279962
0.31885914
0.059374535
0.020576279
0.0053799376
0.0010276957
0.0001570051
2.7713314e-05
1.2594058e-05
1.0828089e-05
1.0678617e-05
1.0923835e-05
1.1035318e-05
1.1014636e-05
1.1119718e-05
1.127782e-05
1.104681e-05
2.3609893e-05
0.00083081406
0.010630318
0.25555946
0.3046963
0.055566221
0.010041288
0.0023716716
0.00042692393
6.7132387e-05
1.6597329e-05
1.116805e-05
1.0423748e-05
1.0342566e-05
1.0469483e-05
1.0469986e-05
1.0560162e-05
1.0748173e-05
1.1195632e-05
1.1761259e-05
1.2279793e-05
0.00084061326
0.027597641
0.30371474
0.25018181
0.041207273
0.0054465942
0.00092360719
0.00014661804
2.8082391e-05
1.2036851e-05
1.0732407e-05
1.0544015e-05
1.0280994e-05
1.0326254e-05
1.054151e-05
1.0337113e-05
1.0719332e-05
1.1196452e-05
1.1582338e-05
6.5552832e-06
0.00061509869
0.017520171
0.30119088
0.19477659
0.025160024
0.0024100834
0.00028837386
4.4401695e-05
1.4731364e-05
1.0818205e-05
1.0460044e-05
1.0346239e-05
1.0121652e-05
1.0154456e-05
1.0483047e-05
1.0456272e-05
1.0671386e-05
1.1045712e-05
1.0975427e-05
2.011832e-05
0.0011227512
0.030613499
0.31445975
0.15520948
0.013543351
0.0010582057
9.7990472e-05
1.8368424e-05
1.1535886e-05
1.0407002e-05
1.06314e-05
1.0176393e-05
1.0210935e-05
1.0470174e-05
1.0470532e-05
1.0454741e-05
1.0496925e-05
1.115532e-05
1.1940738e-05
3.8319251e-05
0.0015050334
0.035864296
0.31404999
0.12910256
0.0072105436
0.00038972911
3.3109655e-05
1.2253663e-05
1.0506411e-05
1.0484409e-05
1.0432675e-05
1.059157e-05
1.0190956e-05
1.1089672e-05
1.0544784e-05
1.0492185e-05
1.0395998e-05
1.09581e-05
1.1643779e-05
5.1179318e-05
0.0011817885
0.030245497
0.30292895
0.11447962
0.0056286476
0.00016381459
1.6331346e-05
1.092307e-05
1.0235496e-05
1.0448401e-05
1.0358496e-05
1.0384446e-05
1.0671038e-05
1.0920345e-05
1.0438766e-05
1.0469756e-05
1.0335023e-05
1.0761183e-05
1.1942027e-05
4.0781943e-05
0.00090428068
0.026471202
0.28295505
0.10214139
0.0041645604
7.524948e-05
1.1715519e-05
1.0424305e-05
1.0273693e-05
1.0610806e-05
1.0452876e-05
1.0273929e-05
1.0543375e-05
1.084662e-05
1.0334814e-05
1.04447e-05
1.0594286e-05
1.0956875e-05
1.1510075e-05
2.2419695e-05
0.00053277711
0.018950385
0.26106326
0.091180121
0.0036455635
7.9703913e-05
1.0787604e-05
1.042557e-05
1.0146919e-05
1.0430886e-05
1.0534022e-05
1.0248271e-05
1.0375305e-05
1.0444221e-05
1.0288456e-05
1.0636954e-05
1.04993e-05
1.0810125e-05
1.1918672e-05
1.8893891e-05
0.00029683328
0.014623139
0.24131059
0.082313742
0.0028114711
5.6712631e-05
1.0793949e-05
1.0311168e-05
1.0303706e-05
1.0257654e-05
1.0419411e-05
1.009447e-05
1.0266396e-05
1.0397917e-05
1.0338912e-05
1.054686e-05
1.0865878e-05
1.0567018e-05
1.2040749e-05
1.736255e-05
0.00015907742
0.0094351465
0.22672789
0.073762114
0.0024086136
4.2368421e-05
1.0502209e-05
1.0388938e-05
1.0359389e-05
1.0374609e-05
1.0419495e-05
1.0266581e-05
1.0309241e-05
1.0187035e-05
1.0609609e-05
1.0459545e-05
1.0593541e-05
1.0621024e-05
1.1941706e-05
2.1869805e-05
0.0002849633
0.010798973
0.21327931
0.067052176
0.0021120467
3.6009846e-05
1.041864e-05
1.0399753e-05
1.0353741e-05
1.0247565e-05
1.0433798e-05
1.0247087e-05
1.0384717e-05
1.0215624e-05
1.0548384e-05
1.0649126e-05
1.0805616e-05
1.0843585e-05
1.1847991e-05
2.3470024e-05
0.00033997963
0.0090849536
0.19871087
0.060348787
0.0018997349
3.4105468e-05
1.0291862e-05
1.0349796e-05
1.0331853e-05
1.0103859e-05
1.0396718e-05
1.0383758e-05
1.0466786e-05
1.0476936e-05
1.0460208e-05
1.0734301e-05
1.0377967e-05
1.0924669e-05
1.1071939e-05
2.2191099e-05
0.00033879336
0.0089227206
0.18438882
0.054351132
0.0015570236
2.8371641e-05
1.0197679e-05
1.0211233e-05
1.0121546e-05
1.0132629e-05
1.0203645e-05
1.0354403e-05
1.0305622e-05
1.0310759e-05
1.0407702e-05
1.0931454e-05
1.0459663e-05
1.1007256e-05
1.0874876e-05
2.0935889e-05
0.00029415561
0.0081728251
0.17018769
0.049510207
0.0014490762
2.5993808e-05
1.0289546e-05
1.0187007e-05
1.0169049e-05
1.0222662e-05
1.0283653e-05
1.0367907e-05
1.0234177e-05
1.0434312e-05
1.0288358e-05
1.0926197e-05
1.0417465e-05
1.1084197e-05
1.0791853e-05
2.1878972e-05
0.00033545938
0.0080996322
0.15660611
0.044441921
0.0013150668
2.5082414e-05
1.029402e-05
1.0197517e-05
1.0268278e-05
1.0259522e-05
1.0201455e-05
1.0308495e-05
1.0104509e-05
1.0332416e-05
1.0200976e-05
1.1027074e-05
1.0275825e-05
1.1276665e-05
1.0582422e-05
2.0572774e-05
0.00028973435
0.0073878335
0.14492051
0.03975063
0.0011694066
2.4449126e-05
1.0204242e-05
1.0117236e-05
1.0203688e-05
1.0220593e-05
1.013628e-05
1.0328191e-05
1.0214709e-05
1.0468824e-05
1.0162404e-05
1.1092361e-05
1.0244819e-05
1.1337763e-05
1.0475807e-05
1.9434917e-05
0.00026670895
0.0074268417
0.13387401
0.035504148
0.00099469093
2.1353196e-05
1.0124103e-05
1.0041913e-05
1.0070432e-05
1.0109528e-05
1.009949e-05
1.0243831e-05
1.0130098e-05
1.05202e-05
1.0178188e-05
1.0914081e-05
1.0625803e-05
1.1318267e-05
1.0320143e-05
1.6872323e-05
0.00020474944