/*--------------------------------*- C++ -*----------------------------------*\
| =========                 |                                                 |
| \\      /  F ield         | OpenFOAM: The Open Source CFD Toolbox           |
|  \\    /   O peration     | Version:  1.7.x                                 |
|   \\  /    A nd           | Web:      www.OpenFOAM.com                      |
|    \\/     M anipulation  |                                                 |
\*---------------------------------------------------------------------------*/
FoamFile
{
    version     2.0;
    format      ascii;
    class       volScalarField;
    location    "0.006";
    object      omega;
}
// * * * * * * * * * * * * * * * * * * * * * * * * * * * * * * * * * * * * * //

dimensions      [0 0 -1 0 0 0 0];

internalField   nonuniform List<scalar> 
206988
(
7466.1675
1126.7944
722.83965
523.83732
440.67524
421.11327
418.18006
417.80273
417.72481
417.69096
417.75185
418.18415
417.97388
418.3475
417.94788
418.0019
418.19053
431.92426
528.59137
6483.5482
6935.654
961.89005
604.07387
468.03284
420.30745
411.26402
410.22914
410.56716
411.08077
411.7503
412.44479
413.332
413.78299
414.41105
414.70341
415.0975
415.66322
427.01435
604.58371
6747.4229
6486.9448
787.44325
519.07179
434.02027
413.49801
410.48052
410.43757
410.95164
411.57571
412.68314
412.60046
413.77804
414.30383
414.93084
415.40209
415.93215
416.19282
425.15843
592.3465
6829.3684
6136.8604
643.20596
470.37621
426.66784
419.41415
418.38699
418.23828
418.14012
417.9026
417.28461
420.11279
418.78498
418.04871
418.34497
417.79521
418.325
417.91136
423.171
624.77747
6809.4322
5886.6651
539.06502
426.32713
410.48389
408.62613
408.47087
408.34794
406.91675
410.48384
404.91799
420.81818
418.03004
410.37796
414.04255
413.38235
414.79974
414.84755
417.65945
608.57937
6778.2909
5725.5167
480.58953
413.75572
408.65892
408.19301
407.83458
406.42866
400.02034
417.42538
408.65225
407.91419
408.24925
421.84866
418.28031
411.92963
417.36648
411.10711
417.06431
598.2419
6712.4939
5626.4312
470.88992
420.61379
418.43795
418.06559
417.73564
416.50107
413.71391
419.99455
410.23997
421.7263
417.88853
417.84561
416.83274
419.04586
420.37098
416.12938
423.26998
609.114
6607.3346
5541.4133
445.84652
410.07561
409.31687
409.53221
409.70293
409.58249
408.936
411.25322
404.928
417.69703
412.8399
415.137
414.04227
416.97739
416.74007
415.74535
420.57215
583.70796
6491.0305
5468.8187
441.73048
409.51286
409.06242
409.30643
409.57498
409.79254
409.70216
410.3914
407.19168
416.35352
413.13801
414.59082
413.71587
415.89137
415.54071
415.93546
420.45952
552.54204
6392.5243
5408.2033
446.53975
418.41318
417.82557
417.79763
417.76025
417.61708
417.25232
416.85282
413.72142
421.84641
418.22188
418.74788
418.96273
417.27398
418.08778
417.82402
421.5176
537.50641
6301.0926
5357.4486
441.77648
418.28509
417.83159
417.82011
417.74787
417.76422
417.50349
417.52589
417.40006
417.90801
416.30353
419.82311
418.3668
417.76492
417.96664
417.9527
420.2221
518.15505
6202.8018
5301.6226
428.79068
409.17893
409.06912
409.29536
409.49959
409.98669
410.03253
409.86241
406.74315
417.27262
412.93319
415.62431
414.67214
414.86792
415.04663
415.89156
418.45439
501.07824
6105.9748
5263.0496
427.1958
409.43415
409.41084
409.63672
409.88351
410.39891
410.65229
411.19483
410.87105
414.51414
413.76657
415.46166
415.17427
415.72944
415.86648
416.8834
419.21006
496.32462
6007.232
5225.5535
436.08417
418.79388
418.48578
418.45733
418.33553
418.35758
418.05098
417.93577
416.24366
420.74378
419.24644
418.60958
418.51291
418.69756
418.54259
419.02297
421.24665
484.8466
5914.3379
5186.7059
423.42046
408.47847
408.49053
408.87536
409.17612
409.59758
410.09135
410.64311
410.45535
414.52597
414.11124
413.97975
414.59771
415.17743
415.50262
416.01448
419.40904
491.09589
5839.4152
5152.4803
422.07687
408.50061
408.54096
408.90003
409.18673
409.60681
410.14913
411.00838
410.98737
413.82604
413.85461
414.08807
414.71318
415.01111
415.40957
415.85879
418.9559
486.44094
5777.5744
5122.4779
431.68294
418.80789
418.53433
418.51193
418.40905
418.63452
418.57819
418.85966
418.67628
418.87734
418.99812
418.56994
418.65884
418.39196
418.40967
418.52472
421.64469
487.22342
5712.5524
5092.2264
419.95536
409.45884
409.46465
409.72214
409.95585
410.816
411.13346
411.85681
412.16228
413.66063
414.47633
414.47371
415.13079
415.46352
415.86596
416.28219
419.29165
483.44216
5645.7313
5068.1774
418.52382
409.16367
409.1927
409.40123
409.54652
410.09226
410.02164
411.77081
411.60691
413.45586
413.75662
413.86228
414.37019
414.74433
415.07119
415.43724
417.94247
474.1921
5577.8926
5045.3525
426.97687
418.21498
418.04451
417.96046
417.83878
417.76698
417.20617
418.61982
417.41575
418.86687
418.16154
418.12625
417.96889
417.99333
417.9423
418.00336
420.07888
472.7441
5510.6681
5023.598
426.18645
418.31097
418.15889
418.11288
418.04574
418.00382
417.62428
418.49783
417.53638
418.93154
418.17888
418.37001
418.12897
418.23654
418.12976
418.17006
420.10468
468.51758
5444.2875
5002.3316
415.7508
409.32767
409.44676
409.70378
409.98602
410.41241
410.66235
411.73245
411.75566
413.57204
413.61033
414.36024
414.62782
415.18516
415.39801
415.72219
417.66794
460.40736
5377.382
4984.8701
415.28544
409.60816
409.75244
410.0729
410.39366
410.86247
411.29084
412.1422
412.67509
413.67617
414.16758
414.91744
415.29748
415.92486
416.19395
416.5727
418.23699
456.08671
5310.8711
4967.5791
424.13286
418.93044
418.81116
418.8181
418.74628
418.7252
418.49209
419.09156
418.76045
418.80209
418.65845
418.66486
418.572
418.67223
418.603
418.63953
419.85697
452.69496
5247.5236
4951.7891
412.77958
408.63914
408.82936
409.1465
409.50239
409.95221
410.43755
411.23048
411.8667
412.71151
413.40949
414.03302
414.54221
415.06824
415.42117
415.77586
417.10889
445.49067
5190.8011
4937.1326
412.17259
408.62963
408.82634
409.18244
409.52323
409.95856
410.42598
411.23358
411.88842
412.68214
413.41302
414.03566
414.5609
415.03036
415.40745
415.76211
416.912
440.88435
5134.4157
4923.5388
422.16902
418.98047
418.91394
418.89838
418.8749
418.84744
418.80796
418.83743
418.7708
418.72389
418.6777
418.63678
418.59527
418.5741
418.54453
418.55432
419.28993
439.65305
5092.4312
4910.7249
411.97187
409.6681
409.87353
410.18623
410.54471
410.9184
411.42819
412.02613
412.71486
413.48181
414.1914
414.79857
415.30392
415.73788
416.105
416.44262
417.35898
434.59489
5043.5169
4900.7655
411.2592
409.37747
409.58106
409.86499
410.19338
410.5681
411.03263
411.58409
412.22039
412.92646
413.5744
414.12082
414.57604
414.96552
415.2935
415.58929
416.36954
431.00738
5006.9126
4888.4789
420.10752
418.38686
418.34696
418.33781
418.32134
418.30684
418.28131
418.2645
418.22808
418.20718
418.16948
418.14733
418.12577
418.10435
418.08936
418.08738
418.41917
429.35786
4991.9753
6917.1017
3166.5055
1288.6831
473.18103
222.04216
139.64923
118.72351
111.29094
112.03591
114.43751
114.10594
117.25853
128.01767
139.06029
164.48774
193.87606
228.54283
300.30965
1141.2377
6504.8967
6819.1562
2711.8487
907.28886
307.98175
145.93799
103.4256
103.73371
96.89469
109.50778
95.918663
98.355032
106.86778
118.64382
127.54229
134.73217
167.12875
223.24896
278.66025
1401.1585
6753.3717
6487.6869
2207.6882
611.70116
187.81674
107.98219
90.260683
97.445468
89.41742
101.14313
86.707726
100.85749
104.8948
113.99714
123.32967
131.59477
175.64265
208.7672
282.82356
1640.598
6854.4472
6156.364
1670.4246
358.14971
147.60644
109.24475
89.543303
95.076344
88.544076
104.02231
95.436014
108.05647
113.29994
129.68559
113.06376
132.98669
168.99577
189.72337
276.03059
1492.5137
6802.8116
5914.3063
1387.5444
208.03646
101.32629
88.662608
88.992598
85.485543
94.660031
81.593728
92.755353
138.78409
139.10468
123.46034
130.27323
161.45865
163.53672
174.11725
272.66768
1905.2729
6831.6777
5738.7227
1134.9054
137.81222
102.67774
78.880762
105.40662
74.091729
129.55356
73.16242
81.696064
102.4331
163.67098
128.94341
164.69411
157.01477
153.99395
160.01198
380.06454
1927.604
6762.3715
5646.0346
1075.7121
129.58385
98.95213
82.637339
94.237893
83.519275
115.00251
87.78417
115.61117
90.667142
137.70665
158.47671
157.42091
120.65902
137.4704
154.53464
334.26829
1850.1215
6641.1603
5557.1016
991.55476
102.6356
77.866532
75.013197
72.512333
81.021808
86.332361
81.283286
108.07804
77.297847
128.17651
115.68283
138.05729
119.90376
127.20195
170.84495
288.39619
1612.3293
6514.1226
5486.6444
926.38145
101.37138
74.790886
75.5872
71.727909
77.468713
76.51145
80.008418
86.192307
76.650877
117.03083
87.784316
123.70595
119.81964
120.56317
160.66748
273.7373
1618.218
6395.8541
5428.1982
894.61366
98.620651
75.164081
74.068583
73.525881
73.364038
73.564222
76.424103
81.36675
71.831849
108.62852
87.18022
102.13366
116.67101
133.63474
140.5891
226.43005
1465.1424
6295.1023
5366.9865
840.76588
92.343023
73.94689
70.814108
73.046736
72.344156
69.097529
69.910312
81.459256
72.459171
101.62207
85.680635
107.32478
105.21002
132.88624
133.45965
208.99966
1420.3862
6216.6258
5316.404
810.81534
82.893936
62.958211
63.973703
67.015528
68.395408
62.261972
68.168969
88.773694
67.167937
84.085902
86.60462
101.93408
101.82637
114.85372
122.268
189.74736
1368.9669
6132.5468
5269.8955
744.07179
81.897667
66.779103
64.502238
68.696646
66.850752
69.156929
66.094664
79.078614
71.92543
79.224476
83.746624
91.082663
98.983021
113.53705
126.90779
210.0434
1316.4205
6044.314
5233.987
731.59209
85.95153
67.284672
66.531781
65.171082
68.015206
64.25459
69.267256
72.722876
72.571915
78.534218
81.844438
92.359601
95.626026
122.1581
120.51041
199.41387
1300.4121
5958.8562
5194.385
696.27069
70.468077
57.124553
59.149667
57.49617
60.411959
55.914301
64.35628
65.481088
66.137837
73.784005
75.702595
94.415149
93.204743
119.38225
117.07758
188.60866
1255.5276
5877.5485
5158.409
665.31603
74.327604
59.733602
60.696416
63.151427
61.295664
60.188254
65.105758
65.235018
64.90703
70.806815
77.265677
83.60959
98.948584
100.00101
121.90921
187.33491
1226.3961
5810.359
5127.567
649.42496
75.782063
60.071523
61.661959
60.314861
61.829766
58.915165
64.231648
54.955356
65.265358
67.103887
76.89416
80.41722
95.406809
86.878164
114.99268
178.411
1205.3545
5742.9828
5098.5102
612.92198
61.379926
49.574915
51.140819
50.940594
52.73125
53.614191
54.912934
54.975273
61.12038
61.723105
73.692132
81.36067
94.554027
89.568139
111.55351
175.32979
1179.6665
5673.6833
5072.7216
591.14166
65.567761
53.371748
53.364813
53.653246
54.994726
52.713235
56.125674
50.271645
62.989374
56.977178
76.465139
69.821008
91.05585
83.20603
110.17466
168.74527
1142.8974
5604.744
5047.753
573.41572
64.11788
53.038437
52.946624
54.373627
54.54006
55.836997
52.573586
57.811765
56.023889
62.443933
73.279441
69.695199
86.218658
75.725306
104.17842
162.32402
1099.5442
5534.8314
5025.4711
544.5615
59.095624
48.435135
47.745077
51.092713
47.659522
52.395686
50.697229
52.753898
55.386825
57.573615
66.233877
68.605007
75.906912
73.288121
98.267326
151.1323
1072.5437
5464.1878
5005.3582
526.25557
55.169711
44.93794
44.495452
47.716368
44.656448
49.387922
45.49032
52.89175
54.431765
52.270003
66.604843
59.97797
74.283492
67.684891
92.431367
149.30275
1033.3008
5392.5106
4986.0146
503.31972
56.416368
48.025973
46.23076
47.925446
45.856218
48.11978
51.601227
48.084236
59.323478
52.737254
63.210994
58.771314
73.150233
64.140145
87.659112
145.32494
963.16598
5323.0179
4969.7305
489.61239
57.127254
48.359788
46.717556
48.545605
46.405664
48.290975
51.717246
47.819301
58.099231
51.08971
59.201975
56.736028
69.668042
59.655644
82.976628
138.68122
918.15981
5256.093
4954.4689
469.379
48.642055
39.796071
39.580809
41.184261
41.030058
40.467395
45.711622
41.989471
51.907141
45.297848
54.163728
51.352556
65.746685
55.176825
77.407697
133.26044
886.78668
5196.8579
4938.4943
456.77342
52.670983
44.092502
43.505357
43.891837
44.816807
43.302078
48.478283
43.386616
52.248146
45.246251
55.208151
47.299929
61.277182
50.327875
71.488087
126.79995
853.36465
5139.7184
4925.4938
436.23639
50.882911
42.290583
42.243896
41.743099
43.345869
42.300138
47.980065
43.383862
50.857929
44.390512
53.106967
44.994697
55.983963
46.569476
62.779636
116.18155
818.00226
5095.7465
4912.7412
421.53945
46.517067
37.347239
37.167623
37.350924
38.343777
37.889219
41.65594
39.109149
45.185338
41.135738
49.161778
42.809951
52.515027
44.489198
59.783533
111.26949
794.40032
5046.4899
4902.1032
404.23125
49.229573
41.278421
41.241032
41.005412
41.243205
40.815055
43.988645
40.425089
45.910663
41.68703
48.581959
43.077883
50.571734
44.009463
52.385034
101.41471
770.97834
5010.8304
4890.2947
415.79597
48.757863
38.91408
39.178926
39.152962
39.677414
39.650135
43.009242
40.669495
45.801047
41.800653
47.814158
43.54939
49.083938
44.133643
47.544191
84.124924
693.08817
4990.4307
6896.5422
3210.3521
1327.7349
463.00374
172.95997
97.095441
73.449073
62.553565
46.507523
49.845186
59.094099
58.85942
62.16766
72.042994
100.0436
113.68079
136.8806
207.78294
1083.598
6474.7121
6812.6188
2759.5741
940.10328
298.94455
114.61984
64.536474
39.890007
41.189276
49.658791
35.930779
49.607252
45.275932
48.857951
53.547914
80.501154
105.37259
131.25268
230.56884
1627.8309
6781.2766
6494.6115
2306.8115
626.9997
168.35154
69.542735
56.164306
36.038413
32.353292
34.319438
30.25818
55.715375
30.223358
48.669735
53.141172
79.944043
96.742376
120.37641
244.03185
1963.856
6846.9397
6164.7929
1785.8932
376.39186
93.311964
32.005844
40.027181
43.522295
29.062599
46.849358
25.567995
35.235663
27.584069
45.084204
50.71729
77.778298
77.674505
108.74171
259.40945
1842.8056
6802.2128
5923.6264
1443.239
213.08483
43.680891
28.381971
39.237275
46.17787
29.548486
46.52469
40.560924
79.529991
30.170834
36.859568
51.860714
85.374597
71.967654
107.61082
242.94607
1951.3041
6796.0234
5762.2626
1142.1209
116.8445
36.015852
35.093035
43.561666
45.739459
39.322081
37.152406
35.546694
62.335374
83.291677
44.405004
103.75017
81.300016
73.536721
104.16592
193.35269
1696.1434
6730.2641
5642.6563
1099.0182
84.28481
32.494347
26.0677
37.714006
35.599473
44.699568
35.370275
67.230276
57.994749
67.891941
45.079736
86.793803
68.556344
83.156447
105.22326
341.60683
2099.1461
6644.0203
5567.5161
1000.6215
64.333401
26.045258
24.774382
30.899989
30.07113
31.741522
31.473649
60.983746
40.263039
72.659986
64.759444
70.490245
57.393741
81.878653
101.79867
272.69197
1865.1225
6527.3582
5494.714
925.77326
57.757983
30.096381
30.486479
32.173522
26.604905
26.464917
33.221589
39.293424
30.159976
61.908908
65.334111
57.845318
50.437391
76.204392
94.978022
231.61554
1726.338
6430.1344
5430.4848
910.62467
61.244591
25.581527
29.417813
31.755433
30.654672
26.458859
28.89676
41.8591
34.713908
43.77422
63.265538
65.615966
55.016954
68.339619
91.287633
197.35237
1588.0902
6343.1418
5377.515
847.18601
46.525771
23.343358
29.844164
25.476318
28.276171
28.90299
30.71558
34.207644
34.397012
36.896656
56.647895
66.168902
69.867667
90.530687
90.963043
191.37277
1525.7993
6252.5294
5329.2036
806.08099
44.35706
21.51153
24.002889
21.689569
22.662748
27.838344
20.658996
42.703379
31.194804
32.587012
40.404451
53.174234
69.126035
80.941712
88.987478
175.78694
1457.7265
6157.5697
5280.8305
759.68637
39.05255
17.107716
21.754984
22.582624
23.440847
19.992619
17.645045
38.50541
32.040029
29.323552
36.02054
41.680989
69.291514
63.275137
86.446557
181.03119
1385.3602
6061.029
5238.9564
738.82441
38.468074
18.615483
22.397812
25.904052
21.744995
19.291671
15.891741
23.652805
29.237237
30.264718
37.376254
52.502242
75.188153
61.700104
88.324099
180.57409
1362.753
5967.5722
5204.5677
711.16314
33.448473
12.841427
15.337198
20.854688
14.524938
16.83169
16.54528
16.59773
26.694023
26.269907
40.238903
50.122571
72.217646
53.270342
86.67689
151.08395
1316.6837
5883.3775
5166.2103
673.9835
36.107335
11.85143
16.213051
13.162836
13.759565
21.836738
18.036953
18.21358
29.807409
30.714027
40.769941
35.712694
62.844847
38.914832
86.612298
162.26026
1257.0972
5816.5034
5131.6521
650.7022
32.193147
15.634234
17.079649
18.580861
15.52943
15.716128
17.831078
14.749233
29.776281
24.194349
40.533137
30.66715
60.789237
32.829707
84.917646
166.81259
1271.6861
5751.4819
5102.3458
620.04481
28.000187
16.446529
13.683621
15.990215
10.622397
12.564385
16.327514
11.185584
29.771189
23.208149
42.343325
41.594618
55.665126
37.776369
76.047286
155.01472
1216.0194
5680.9569
5078.6021
595.92438
27.956006
17.314972
12.797745
15.819079
11.624715
12.137039
18.018831
11.568062
28.122552
19.791603
37.290485
32.362182
48.50674
33.490486
66.85269
140.46913
1159.6157
5610.374
5053.7523
580.10154
26.042753
8.7958595
11.947441
10.79368
13.839218
10.073591
16.411756
11.267699
23.963129
14.56291
34.872304
23.837997
45.257955
22.807222
59.072095
123.95786
1136.7947
5540.3259
5029.9161
542.75215
23.370298
7.9342999
11.396855
8.8229352
12.090059
10.989884
15.033224
8.7778864
23.049406
12.179233
30.767417
22.608683
39.47442
20.11004
52.815387
115.84949
1096.2262
5469.768
5011.3823
528.81378
21.564589
7.3120932
10.627172
7.2637574
11.663357
9.2423434
14.172995
8.145002
21.388217
12.085042
24.930359
16.553634
31.398574
18.564292
49.825949
111.05056
1063.4892
5399.4575
4991.7084
512.61437
21.527273
6.2797228
10.242272
5.6956502
9.9553984
7.6049718
12.001011
6.5065851
18.098546
9.0980143
24.016178
16.735949
30.196266
24.768805
43.119425
109.08661
999.36772
5328.2582
4974.0094
490.54121
22.447214
9.6854823
10.065007
8.5131478
10.15609
7.0711416
11.372769
7.0134802
17.528022
13.710834
24.147179
20.545446
30.478689
29.159129
36.059514
99.270855
956.84512
5259.7824
4958.9997
473.15497
20.809574
9.9759891
9.9581714
8.9095386
7.5926246
6.8331948
8.2992076
7.1627773
15.821605
14.630648
22.92799
19.217932
22.471714
27.174394
36.273749
91.13938
925.39226
5202.2839
4943.3508
461.34153
20.029162
5.0197772
8.4083315
5.3453078
7.7134945
5.8843777
8.969758
9.3508358
10.79603
12.554568
16.456497
19.210345
19.171323
19.643322
37.532416
92.074072
871.69273
5145.0483
4929.4381
438.62209
18.732913
8.1801543
5.5701642
5.0779998
9.2845527
6.0967166
8.5802474
6.2887713
10.817511
6.8422284
11.047732
14.86776
17.18026
13.617993
33.375713
91.002901
839.34299
5100.8293
4916.576
417.06614
18.187876
7.755131
4.7378572
4.8296829
8.2037733
6.0841604
9.4732449
7.6568476
10.907432
6.4011004
10.761697
10.289554
20.450597
11.522259
29.418454
86.016066
808.45457
5051.612
4906.2789
400.75345
17.047955
5.1108264
5.2368432
6.1405719
8.0233303
7.4101545
9.3451121
6.4989836
11.222971
5.7772956
12.372767
7.4672729
18.606939
8.8797941
25.101482
78.865557
785.81185
5012.9599
4894.1191
411.2773
18.14549
6.0488222
4.8189718
4.1761068
6.5774178
5.8544211
7.7230625
4.7530653
10.609266
6.2411834
13.227083
7.9582234
16.65095
8.8970384
22.223205
60.452751
699.67588
5006.0634
6897.9655
3289.5983
1433.3288
522.38842
177.43562
99.004625
66.323167
58.605062
41.379029
43.168952
42.992425
45.232064
48.991217
57.041458
70.453627
110.54036
137.10348
199.61482
1191.706
6496.6362
6820.5993
2785.4583
939.62348
292.82051
114.81053
54.9575
44.653172
36.904696
32.410504
25.605298
28.883548
27.650244
29.465048
40.597463
66.753464
108.59921
144.51447
211.43528
1674.9962
6769.9134
6510.8121
2304.5397
623.5946
161.25548
59.882767
35.034511
25.985154
33.279832
35.573483
20.346717
23.387197
32.684488
25.262069
37.713143
72.179113
86.669045
119.40739
202.53564
1494.4027
6756.1714
6179.1235
1814.2005
339.79932
84.455215
41.086134
32.179497
31.932596
28.230723
28.361073
13.052283
16.413384
33.915357
43.137015
40.03333
71.903181
58.398566
109.65291
214.31594
1836.0341
6830.1749
5930.6707
1459.3559
205.38836
41.72527
32.184102
31.632049
26.31496
29.347859
21.355268
17.245502
77.650062
39.013814
51.26855
31.501965
78.341816
99.798812
139.62794
285.78599
2026.8703
6827.3105
5766.1727
1197.9271
117.33866
23.440036
31.9001
23.723324
29.965438
24.778378
32.824515
18.491781
91.91266
51.741133
50.607521
31.76165
72.780984
76.73624
108.06191
283.0153
1968.3379
6766.8899
5666.0848
1118.6988
82.473209
17.044345
29.249949
17.079881
27.869284
24.839929
28.419483
52.867896
65.838015
42.320395
49.841015
31.287952
66.156816
92.758177
102.57171
268.4302
1910.6678
6655.4648
5582.5664
1016.3167
61.283536
18.87913
23.661865
17.660541
30.364454
27.733853
24.04563
43.433686
59.063284
32.288672
42.951825
48.461192
69.275444
97.514914
84.226352
234.37054
1747.0249
6531.0505
5507.4898
991.67091
63.094373
16.517639
26.968172
13.519847
24.950068
27.782502
23.011146
28.355759
36.879336
29.824661
52.02327
48.686173
62.197771
103.68825
79.496752
199.32475
1639.1438
6417.0359
5446.3685
893.68113
52.94135
17.24624
21.200204
21.733427
18.525518
24.093382
13.56961
21.700038
33.718791
32.138728
44.421567
68.546469
51.233099
102.93345
75.821413
158.71748
1499.4576
6331.6285
5386.8371
851.98298
45.615333
15.191779
21.239841
20.716568
21.180359
26.597578
21.482448
22.373002
23.881852
45.525171
39.315244
55.759774
52.337108
98.244047
76.797118
163.91951
1500.7563
6251.9431
5339.825
818.59475
40.896014
15.349852
22.152321
19.27091
16.844264
25.548796
19.900271
27.683192
22.066474
44.292872
42.220887
56.522392
55.118245
89.991353
81.104163
191.14182
1434.841
6164.238
5292.2442
785.37163
39.362
12.780394
18.777192
18.836767
10.477635
26.976353
21.384949
29.840577
25.649427
37.78312
42.216637
36.870072
53.451976
57.074749
81.203208
192.05264
1402.3819
6076.7657
5249.1227
723.82937
36.82561
8.4595763
14.901816
10.570209
11.895385
17.786155
18.536079
21.78993
22.11499
34.050335
44.743955
37.504418
54.155372
51.189933
79.289658
181.23111
1356.0445
5989.0812
5214.6535
713.3349
32.819907
12.543313
11.476344
13.310399
12.657633
22.249981
19.147528
18.695078
25.744241
27.07926
44.291366
35.503285
56.493793
46.593346
77.739186
181.17839
1333.3419
5903.7184
5178.1617
683.89121
31.085407
13.606634
11.823304
14.626008
13.372094
16.370798
17.517089
12.674996
21.99676
19.440077
44.098856
27.863582
56.657018
38.743658
76.004592
170.41474
1293.0415
5829.4961
5143.2089
656.52545
28.44105
9.9492258
8.5464978
12.70046
12.322215
11.543891
17.265881
15.797107
24.774592
17.023856
43.311897
23.149523
55.984406
34.049993
73.753478
157.6979
1277.5721
5758.5016
5112.4478
622.28373
25.716414
7.0361884
5.6782787
8.1359333
8.3674033
8.8817542
14.941317
11.432575
25.549999
16.339195
38.889318
32.779657
52.62272
26.355269
69.081319
142.38969
1206.4031
5685.534
5086.0474
607.06116
26.172177
9.2974049
7.6433869
11.527305
11.910377
10.016911
15.55297
10.647871
23.561035
13.296846
35.72716
31.341214
45.925915
19.351611
63.527596
121.9701
1160.2122
5614.9147
5060.2833
584.17306
24.502055
5.9372142
8.249196
7.0209924
8.6743052
9.8926752
14.059003
7.8048023
18.742042
9.6858953
32.866084
18.948147
43.102502
15.742259
58.25595
108.71834
1118.144
5543.9412
5038.6406
558.32408
22.426125
3.7118658
6.8858079
5.4748476
6.9882211
7.9955956
11.422879
12.985972
18.317821
13.906515
27.112611
16.832494
36.522014
14.278878
53.243891
117.55339
1099.7229
5471.4961
5017.868
530.13524
19.931984
3.5629346
7.2895084
8.8724803
8.9887216
9.1303051
11.07929
7.3053842
17.445065
16.882279
25.406582
12.734301
34.576982
19.025627
48.56434
118.06263
1064.175
5402.256
4997.7531
522.82928
20.232537
4.2203296
5.6846007
6.2128603
7.9688048
5.888134
10.220949
6.8549273
14.713723
10.787251
22.550031
14.888994
32.906192
16.56632
43.529052
109.66047
1010.1201
5332.7784
4980.2406
497.36869
20.481308
7.1242411
7.7521809
5.2860637
7.8470185
3.8396912
8.9998719
4.6946769
10.580924
10.632184
14.518401
13.20983
25.809718
26.680093
37.111325
105.34344
959.58412
5264.3109
4964.5295
478.46507
19.201553
6.3608692
5.905649
4.1264495
5.9687246
6.3128406
8.1663523
5.234816
12.475935
8.4704731
12.931603
17.243839
23.960771
25.904174
29.68503
97.968655
923.37025
5206.0267
4949.4348
467.40748
18.862956
6.3352756
6.1928876
5.8968956
7.2294781
4.1427928
4.5977656
5.2053825
9.0217463
10.336007
12.88512
17.546643
23.332137
27.481078
29.242495
94.932234
883.38632
5149.8954
4935.4309
440.83556
17.739371
3.7868867
6.6777516
3.2769767
7.5002444
5.5384148
4.7851231
4.3577957
6.8493389
11.784185
14.852965
17.703945
20.902218
25.359155
30.872505
89.01024
829.93346
5105.3256
4922.6618
426.10944
17.447504
6.3338514
6.4698243
5.4426539
5.1585879
4.0131393
6.562883
3.4489019
9.2831144
7.0274419
13.800345
9.7403736
12.782755
14.131063
29.004066
84.265328
813.94029
5057.2081
4912.011
406.37946
16.158637
3.6794507
5.5662346
5.319214
5.8130064
3.8801707
6.311915
4.1152927
9.3961463
4.0052759
12.121617
5.1650444
13.694276
7.1114276
24.316308
76.132912
783.6807
5015.7675
4899.572
416.1875
17.055064
5.3261368
3.7844899
2.972924
5.5579957
4.2982408
5.3719012
3.2540408
7.6218191
4.1852369
11.477718
5.4582119
14.411894
7.0270897
20.764944
61.661552
717.38745
5020.7273
6930.0228
3376.5827
1447.7618
508.94123
177.93688
87.782629
63.310098
50.708688
54.869477
45.415307
42.333108
47.401152
50.32945
53.427609
61.857933
109.06224
155.89956
235.05178
1472.5476
6619.1095
6846.8175
2851.2629
997.8318
298.81676
104.08946
49.347976
40.51057
42.761317
28.70697
19.56098
31.747656
30.027516
33.573029
39.930268
61.774996
95.77395
137.61713
241.65707
1595.1307
6695.0351
6533.4267
2336.0298
642.46387
163.09389
63.091512
36.254234
28.054472
32.465897
33.446279
20.328936
44.716696
26.828646
29.054319
33.367683
57.368815
80.317249
126.33821
251.53468
1759.339
6860.5121
6204.4064
1829.7984
362.83899
88.432801
40.767369
36.838815
22.29469
24.509351
19.932358
17.998679
38.49439
31.026251
50.369115
28.141446
66.794878
73.196085
110.6055
264.31692
1825.6603
6832.8639
5956.848
1428.2606
194.60504
40.954013
37.714422
31.249298
26.331798
28.106206
22.576149
17.906288
49.056031
29.889795
55.575265
31.825073
74.592035
86.335477
117.84192
249.55757
1862.6092
6795.5288
5790.6082
1227.7392
105.63095
31.690276
28.803942
31.001581
30.996766
33.388377
20.093068
38.855476
57.689945
30.465394
59.015845
36.728966
83.624982
78.819944
90.015851
245.09702
1859.7999
6741.9415
5681.5163
1129.4756
84.334432
18.264815
27.692437
21.441763
32.022441
27.962208
29.829973
42.095606
44.190713
41.212508
46.928976
36.71875
89.175692
77.088181
77.501426
261.67285
1841.0946
6643.405
5599.3252
1000.1852
57.805588
20.981425
19.616496
24.39704
23.086473
25.383005
27.039124
30.0473
38.977251
45.795234
46.225737
56.999948
80.502207
80.056287
65.541343
245.49214
1767.1135
6544.1446
5531.0292
981.95134
60.147876
15.999581
19.565928
19.745937
17.370019
18.365951
19.422327
16.671143
35.101576
47.459276
38.857164
79.347363
61.720334
78.718574
79.891747
204.98129
1636.967
6447.1278
5466.4192
929.63843
55.631781
13.242003
20.685643
21.11258
11.189831
13.840795
19.521241
16.081081
28.451954
42.751685
36.787456
88.703146
55.161211
84.648747
90.377689
189.64883
1554.4569
6364.3035
5410.1373
872.4689
46.502946
13.935647
19.5505
19.482673
15.803147
16.888165
19.887793
26.707999
25.923795
39.549501
39.849421
80.755927
59.2963
82.867417
91.406863
185.45018
1531.7755
6274.1559
5361.5949
827.31996
41.233069
9.8718955
18.972095
14.112663
18.741848
21.084777
17.924324
26.255333
24.111639
41.459207
38.021488
68.476088
59.347001
84.542122
81.492058
182.53067
1475.5827
6180.8087
5312.2803
799.25339
40.538576
10.906135
15.305997
15.369847
14.027423
22.95303
15.761014
21.471083
19.869424
29.218753
37.227181
36.677159
55.586484
63.166278
73.105245
166.08606
1409.2481
6086.5198
5271.754
767.38115
37.070037
13.165966
16.48449
18.62321
13.547015
17.583782
13.289628
23.554207
20.833446
28.173048
38.838144
41.031095
52.922508
43.749162
75.844546
148.26599
1354.7187
5992.1445
5232.6217
723.61338
31.727357
8.6914275
13.771597
12.436757
13.723765
12.459382
13.442736
18.390895
18.705386
23.422131
37.542597
33.623117
56.452484
37.938644
79.680758
165.79188
1326.1764
5907.8327
5193.1918
711.91327
33.588332
12.333076
11.525805
12.557823
9.5498859
10.436087
16.419742
15.008327
23.475371
14.450897
38.781902
22.725388
56.405032
32.016425
77.717495
158.2853
1292.8532
5838.3819
5158.2501
670.07142
29.423299
11.242911
12.647456
16.376758
11.219336
8.0465989
17.675201
13.133715
25.383095
23.439997
38.060848
22.666018
54.239356
34.885382
74.286766
157.70179
1258.8424
5767.9232
5129.3685
642.1521
26.263955
6.2126959
11.567867
10.536719
10.377781
8.2542826
16.06089
10.716014
24.84126
17.58996
35.008083
21.342014
50.370762
30.319319
68.094212
150.66336
1225.0186
5696.1342
5100.8429
625.63056
26.368481
5.8063014
9.4997184
5.9750588
10.853048
10.378896
14.562517
6.8609262
22.552588
16.124405
34.005376
17.409373
46.677201
21.386136
62.015112
125.82265
1171.3063
5626.5016
5074.7732
593.32272
24.010492
5.3717473
8.7728712
6.4549934
7.5777459
10.557341
12.428993
5.460986
20.575063
10.514718
23.915778
14.108978
42.253699
18.820114
57.125584
127.99069
1147.1456
5553.536
5052.2131
567.97406
22.237261
3.9263215
7.6736343
5.9662845
9.3425861
6.4597224
11.908927
6.3394254
19.862097
17.687568
24.88178
16.916279
39.777454
17.500887
51.221549
122.77347
1102.8409
5479.8444
5031.3776
551.72611
20.963256
4.3597905
8.5813194
4.6162147
6.2893405
5.172669
11.768383
5.3611104
15.83428
12.438812
22.535937
20.675478
35.547754
18.515232
45.185669
113.14489
1053.1261
5407.9543
5011.0073
533.8984
21.364041
4.3131691
4.8978208
7.3148572
7.9605538
3.6480261
11.298721
6.0255265
15.399244
11.358219
20.768082
13.139941
31.898056
17.713326
42.385832
103.58007
1009.1607
5339.2231
4992.5225
507.71608
21.340845
6.9505282
6.6530532
5.3494221
8.5808101
7.3894177
9.3599262
4.0698303
14.422221
6.9337427
15.811589
14.652784
28.821917
14.166207
38.882728
103.51452
957.20295
5274.9457
4977.0497
492.69535
19.78146
4.5456163
6.9007233
6.6037216
8.1212847
4.6030841
8.5338952
3.1586002
8.4713627
11.424712
15.543969
17.650899
20.413818
14.03742
32.607479
98.286369
914.22894
5217.0091
4961.4772
477.45718
19.184723
3.0254157
6.256837
4.4509451
7.1035252
2.9497825
5.8741057
4.7531552
9.2799698
7.9413975
10.918564
15.810359
14.74245
23.796461
24.149844
94.438357
879.807
5159.7455
4947.041
459.88977
18.854539
2.8164533
4.7116162
4.4212736
4.55604
3.6896284
7.1767269
6.4357989
9.1182123
7.2094936
14.072335
11.966859
19.19157
21.795929
21.943074
89.467851
833.02882
5115.8849
4933.9328
437.72742
17.320707
2.6310618
5.4487571