/*--------------------------------*- C++ -*----------------------------------*\
| =========                 |                                                 |
| \\      /  F ield         | OpenFOAM: The Open Source CFD Toolbox           |
|  \\    /   O peration     | Version:  1.7.x                                 |
|   \\  /    A nd           | Web:      www.OpenFOAM.com                      |
|    \\/     M anipulation  |                                                 |
\*---------------------------------------------------------------------------*/
FoamFile
{
    version     2.0;
    format      ascii;
    class       volScalarField;
    location    "0.006";
    object      p;
}
// * * * * * * * * * * * * * * * * * * * * * * * * * * * * * * * * * * * * * //

dimensions      [1 -1 -2 0 0 0 0];

internalField   nonuniform List<scalar> 
206988
(
101156.37
101156.29
101156.12
101156.05
101155.09
101154.93
101154.32
101153.89
101152.48
101151.81
101147.71
101148.77
101143.12
101137.78
101138.09
101135.82
101136.57
101135.15
101134.58
101135.16
101149.82
101149.28
101148.62
101147.77
101147
101146.56
101146.23
101144.87
101144.04
101142.49
101142.12
101136.45
101133.33
101132.54
101131.78
101131.07
101140.34
101124.79
101123.53
101123.11
101139.38
101138.8
101138.89
101137.75
101138.06
101136.37
101137.28
101133.78
101136.7
101129.3
101134.6
101122.95
101127.57
101120.86
101122.14
101118.51
101117.54
101116.82
101110.17
101116.07
101126.91
101126.46
101126.67
101125.91
101126.13
101125.04
101125.16
101122.3
101129.28
101115.61
101127.37
101112.05
101120.7
101112.19
101115.17
101109.33
101108.82
101107.14
101101.77
101103.35
101113.15
101112.45
101114.33
101112.56
101113.63
101112.59
101112.36
101110.96
101114.96
101099.22
101118.36
101095.73
101114.4
101097.91
101106.27
101095.46
101094.14
101092.6
101090.4
101091.85
101102.57
101101.78
101102.37
101100.86
101102.4
101098.78
101101
101095.23
101106.16
101075.34
101113.71
101075.29
101101.11
101081.85
101104.19
101091.49
101064.62
101090.26
101078.47
101078.96
101085.5
101083.84
101086.1
101082.19
101086.95
101080.43
101090.56
101079.16
101095.14
101071.61
101106.22
101064.73
101084.2
101077.61
101084.03
101077.87
101074.77
101073.9
101074
101072.98
101072.08
101071.34
101073.5
101070.8
101072.91
101070.91
101075.59
101067.48
101081.69
101049.58
101126.09
101021.54
101089.04
101062.73
101077.33
101063.88
101069.09
101055.62
101059.77
101057.89
101058.4
101057.16
101057.12
101056.9
101059.74
101055.49
101063.17
101051.07
101067.53
101041.44
101104.11
101010.74
101068.43
101037.73
101064.25
101046.5
101051.77
101047.78
101048.29
101046.67
101044.69
101041.63
101041.44
101041
101049.49
101035.33
101046
101042.4
101050.9
101040.69
101063.08
101028.74
101038.1
101028.41
101040.11
101034.15
101036.5
101034.56
101035.1
101033.74
101025.68
101023.81
101027.05
101023.64
101028.03
101026.7
101027.76
101026.37
101029.95
101020.34
101048.27
101017.53
101034.25
101023.64
101026.05
101022.51
101024.06
101021.22
101021.83
101020.36
101011.08
101010.26
101011.45
101009.85
101011.75
101010.75
101011.68
101008.92
101019.07
101003.41
101021.88
101008.78
101017.95
101010.88
101011.34
101008.68
101009.46
101007.34
101007.62
101006.4
100996.4
100994.26
100997.1
100993.46
100998.12
100993.17
100997.91
100991.94
101002.33
100986.36
101006.84
100996.06
101000.58
100995.97
100996.64
100994.04
100994.58
100992.77
100993
100991.82
100981.31
100979.99
100982.6
100979.79
100982.35
100979.12
100983.01
100978.39
100986.77
100976.2
100987.89
100981.72
100985.11
100980.69
100982
100979.31
100979.81
100978.13
100978.33
100977.3
100966.78
100966.22
100967.42
100965.92
100968.02
100965.35
100969.24
100964.55
100970.32
100963.36
100972.05
100965.82
100969.45
100965.57
100966.85
100964.31
100964.83
100963.37
100963.56
100962.64
100952.44
100951.86
100952.79
100951.49
100953.16
100950.64
100953.76
100949.73
100955.1
100948.2
100957.05
100949.58
100953.57
100949.86
100951.31
100949.12
100949.88
100948.55
100948.77
100947.96
100938
100937.45
100938.36
100937.1
100938.71
100936.44
100939.46
100935.49
100940.55
100933.94
100941.41
100935.17
100938.58
100935.32
100936.77
100934.98
100935.59
100934.45
100934.65
100933.88
100923.68
100923.16
100924.01
100922.77
100924.35
100922.19
100924.87
100921.37
100925.93
100919.92
100926.46
100920.77
100924.3
100920.71
100922.46
100921.05
100921.67
100920.69
100920.9
100920.22
100909.71
100909.24
100910.05
100908.83
100910.37
100908.32
100910.89
100907.55
100911.81
100906.19
100912.27
100907.05
100910.47
100907.62
100909.22
100907.78
100908.35
100907.47
100907.66
100907.06
100896.17
100895.76
100896.44
100895.43
100896.88
100895.09
100897.53
100894.39
100898.22
100893.1
100898.48
100894.01
100897.17
100894.85
100896.33
100895.04
100895.57
100894.78
100894.96
100894.43
100883
100882.7
100883.38
100882.52
100883.8
100882.26
100884.5
100881.71
100885.31
100880.61
100885.89
100881.55
100884.56
100882.65
100883.94
100882.91
100883.38
100882.7
100882.9
100882.41
100871.23
100871.06
100871.56
100870.76
100871.89
100870.38
100872.4
100869.77
100873.16
100868.77
100873.83
100869.92
100872.69
100870.97
100872.25
100871.36
100871.82
100871.25
100871.41
100870.98
100860.09
100860.04
100860.27
100859.71
100860.58
100859.13
100860.93
100858.43
100861.67
100857.55
100862.62
100858.94
100861.19
100859.91
100861.07
100860.34
100860.78
100860.29
100860.45
100860.08
100849
100848.95
100849.03
100848.66
100849.32
100848.2
100849.8
100847.69
100850.67
100847.2
100851.56
100848.62
100850.84
100849.66
100850.71
100850.09
100850.53
100850.11
100850.3
100849.97
100838.6
100838.56
100838.6
100838.46
100838.92
100838.12
100839.52
100837.77
100840.56
100837.59
100841.6
100839.06
100841.2
100840.16
100841.15
100840.64
100841.06
100840.75
100840.94
100840.66
100829.53
100829.5
100829.53
100829.47
100829.7
100829.18
100830.34
100828.86
100831.36
100828.84
100832.53
100830.28
100832.31
100831.43
100832.35
100831.94
100832.34
100832.07
100832.22
100831.96
100821.44
100821.45
100821.49
100821.48
100821.58
100821.32
100822.03
100820.85
100823.02
100820.97
100824.26
100822.32
100824.24
100823.51
100824.37
100824.04
100824.4
100824.17
100824.32
100824.09
100813.7
100813.65
100813.65
100813.62
100813.69
100813.63
100814.12
100813.48
100815.37
100813.63
100816.62
100815.08
100816.94
100816.36
100817.21
100816.96
100817.31
100817.12
100817.27
100817.07
100806.65
100806.65
100806.65
100806.68
100806.77
100806.79
100807.11
100806.88
100808.36
100807.2
100809.86
100808.74
100810.48
100810.08
100810.89
100810.71
100811.06
100810.91
100811.06
100810.89
100801.67
100801.51
100801.44
100801.45
100801.46
100801.44
100801.64
100801.59
100802.46
100801.79
100803.92
100803.25
100804.8
100804.63
100805.38
100805.32
100805.63
100805.54
100805.66
100805.53
101156.08
101156.1
101155.66
101156
101154.63
101155.04
101153.95
101154.65
101155.29
101150.15
101147.78
101145.79
101143.74
101138.16
101131.93
101139.69
101142.91
101139.6
101139.07
101136.22
101150.61
101150.07
101149.44
101148.33
101147.67
101146.92
101146.25
101145.33
101144.34
101143.31
101141.35
101136.3
101137.25
101132.96
101135.26
101137.96
101126.51
101133.81
101131.15
101120.88
101140.25
101139.68
101139.78
101138.93
101138.97
101137.38
101138.48
101134.43
101137.18
101129.14
101135.83
101128.06
101127.42
101120.43
101120.06
101118.39
101121.19
101101.24
101116.52
101106.75
101127.73
101127.26
101127.17
101127.06
101126.15
101125.66
101125.66
101122.51
101130.66
101115.7
101127.82
101112.82
101121.22
101112.73
101116.42
101108.73
101116.02
101107.68
101106.29
101111.01
101113.57
101112.97
101112.86
101110.76
101115.21
101112.13
101114.38
101109.01
101119.19
101100.79
101118.45
101093.28
101110.75
101096.47
101107.08
101085.55
101099.27
101091.69
101097.35
101093.24
101103.32
101103.71
101105.73
101102.13
101105.13
101096.91
101105.3
101088.12
101109.55
101079.52
101114.12
101065.98
101103.25
101082.27
101099.17
101092.96
101088.88
101087.11
101085.03
101083.92
101085.48
101084.76
101086.16
101082.59
101084.34
101081.86
101087.82
101081.61
101095.14
101069.74
101107.42
101057.05
101087.5
101071.99
101082.39
101084.79
101075.19
101074.28
101075.36
101073.86
101073.85
101073.36
101074.01
101073.36
101073.85
101071.68
101075.97
101066.3
101071.97
101052.81
101109.66
101042.54
101076.83
101072.47
101074.79
101065.63
101067.77
101063.06
101064.72
101061.79
101059.43
101058.32
101058.32
101057.1
101058.55
101056.54
101067.7
101046.9
101073.99
101028.72
101085
101044.16
101062.02
101044.39
101061.2
101048.89
101056.64
101049.71
101051.47
101048.62
101044.71
101043.08
101046.17
101043.56
101053.64
101032.64
101044.33
101043
101052.77
101043.7
101061.78
101024.56
101043.68
101032.51
101043.63
101035.42
101038.43
101036.31
101035.92
101035.19
101026.8
101025.95
101027.42
101026.9
101027.46
101026.47
101027.61
101030.29
101024.85
101019.5
101045.3
101019.05
101029.88
101029.76
101028.16
101022.88
101026.16
101020.64
101023.34
101020.49
101012
101010.94
101012.12
101010.94
101011.94
101011.57
101011.77
101008.41
101018.1
101003.4
101020.21
101009.41
101014.72
101010.62
101012.46
101008.75
101010.44
101007.54
101008.48
101006.69
100996.58
100995.54
100997.33
100993.67
100998.27
100992.62
100998.67
100991.91
101004.88
100985.8
101008.34
100996.95
101000.9
100995.72
100997.66
100994.47
100995.23
100993.31
100993.51
100992.25
100981.49
100981.13
100982.14
100980.54
100983.06
100979.37
100984.12
100978.49
100987.12
100974.88
100989.24
100981.47
100985.54
100980.83
100982.4
100979.92
100980.41
100978.85
100979.04
100977.94
100967.67
100966.94
100967.83
100966.41
100968.64
100965.87
100969.39
100964.9
100969.98
100962.84
100972.41
100965.45
100970.06
100965.69
100967.1
100964.78
100965.63
100964.06
100964.28
100963.61
100953.16
100952.51
100953.34
100952.11
100954.15
100951.34
100954.85
100950.32
100955.44
100948.77
100957.2
100950.07
100954.13
100950.84
100951.38
100948.65
100950.58
100948.72
100949.27
100948.55
100938.93
100938.31
100939.16
100937.95
100939.47
100937.27
100940.24
100936.14
100941.14
100934.45
100942.36
100935.61
100939.25
100936.57
100937.57
100935.9
100936.67
100935.26
100935.53
100934.73
100924.73
100924.2
100925.12
100923.75
100925.41
100923.13
100925.94
100922.18
100926.88
100920.47
100927.57
100921.54
100924.77
100922.92
100924
100922.31
100923.14
100921.86
100922.34
100921.46
100910.75
100910.39
100911.14
100910.05
100911.57
100909.56
100912.22
100908.66
100912.99
100906.85
100913.2
100907.97
100911.26
100908.9
100910.5
100908.87
100909.69
100908.6
100909.02
100908.36
100897.37
100896.97
100897.39
100896.69
100898.1
100896.47
100899.06
100895.57
100899.41
100893.92
100899.75
100894.91
100898.16
100895.89
100897.53
100896.07
100896.93
100895.84
100896.13
100895.67
100884.4
100883.85
100884.8
100883.84
100885.04
100883.76
100885.81
100882.93
100886.42
100881.64
100886.78
100882.51
100885.73
100883.53
100885.05
100883.92
100884.52
100883.86
100884.1
100883.57
100873.01
100872.91
100873.41
100872.5
100873.58
100871.75
100873.76
100870.98
100874.07
100869.85
100874.68
100870.58
100873.62
100872.02
100873.67
100872.57
100873.29
100872.49
100872.64
100872.15
100861.45
100861.45
100861.67
100861.23
100861.97
100860.56
100861.92
100859.53
100862.67
100858.42
100863.27
100859.53
100862.2
100861.01
100862.16
100861.44
100861.96
100861.37
100861.61
100861.2
100850.25
100850.09
100850.11
100849.74
100850.36
100849.34
100850.88
100848.94
100851.89
100848.17
100852.78
100849.59
100851.63
100850.87
100851.82
100851.33
100851.8
100851.4
100851.61
100851.26
100839.64
100839.61
100839.65
100839.53
100839.89
100839.16
100840.56
100839.2
100841.95
100838.69
100843.15
100840.2
100842.2
100841.55
100842.41
100841.95
100842.51
100842.34
100842.51
100842.36
100831.12
100831.1
100831.1
100831.03
100831.18
100830.7
100831.83
100830.32
100832.94
100830.2
100833.97
100831.39
100833.4
100832.89
100833.64
100833.32
100833.75
100833.43
100833.61
100833.32
100823.26
100823.27
100823.33
100823.29
100823.2
100822.99
100823.49
100822.08
100824.59
100822.58
100825.78
100823.5
100825.56
100825.1
100825.87
100825.53
100825.91
100825.62
100825.77
100825.55
100814.75
100814.76
100814.76
100814.72
100814.79
100814.73
100815.2
100814.47
100816.89
100814.79
100818.26
100816.36
100818.41
100817.98
100818.81
100818.58
100818.93
100818.71
100818.85
100818.66
100807.79
100807.86
100807.92
100808.03
100808.14
100808.16
100808.45
100808.2
100809.9
100808.39
100811.44
100809.98
100811.96
100811.48
100812.41
100812.27
100812.63
100812.47
100812.62
100812.47
100802.64
100802.75
100802.91
100803.13
100803.31
100803.37
100803.54
100803.44
100804.25
100803.14
100805.59
100804.58
100806.44
100806.18
100807
100806.92
100807.24
100807.12
100807.26
100807.12
101156.64
101156.59
101156.07
101155.57
101154.74
101154.74
101153.23
101154.17
101153.87
101152.46
101149.57
101149.61
101144.89
101149.13
101141.23
101137.28
101140.72
101139.88
101141.51
101137.33
101151.7
101151.3
101150.95
101149.44
101148.35
101147.55
101146.14
101146.25
101142.75
101142.14
101142.24
101137.76
101135.08
101134.92
101132.63
101123.66
101127.6
101134.95
101134.58
101126.18
101141.48
101140.88
101141.47
101139.67
101139.8
101137.53
101138.79
101134.81
101137.19
101129.89
101135.8
101124.38
101126.61
101123.44
101121.38
101117.93
101112.8
101104.47
101126.33
101124.6
101129.03
101128.58
101128.73
101127.3
101128.87
101125.86
101128.71
101124.09
101129.86
101115.14
101127.83
101109.69
101123.53
101112.49
101114.56
101107.48
101109.01
101109.75
101110.71
101115.75
101114.29
101113.66
101113.69
101113.25
101116.17
101115.28
101117.84
101110.29
101117.81
101106.96
101117.68
101092.77
101111.6
101104.12
101108.6
101094.87
101095.64
101095.68
101100.94
101100.58
101100.63
101097.68
101100.47
101095.35
101101.59
101095.92
101108.21
101094.72
101111.42
101081.93
101106.59
101094.01
101096.94
101091.79
101102.37
101090.23
101091.29
101084.76
101093.22
101091.76
101089.06
101088.45
101089.31
101087.34
101089.33
101085.71
101091.99
101082.75
101092.47
101080.54
101090.71
101070.94
101059.08
101103.86
101095.25
101082.14
101087.06
101078.73
101080.25
101076.05
101076.18
101076.72
101077.11
101075.1
101076.35
101072.29
101076.11
101066.61
101075.59
101062.4
101091.17
101065.12
101049.07
101051.79
101084.8
101061.2
101079.99
101060.62
101065
101061.1
101059.71
101058.45
101059.72
101056.65
101058.49
101051.99
101060.99
101052.3
101067.85
101064.81
101075.12
101037.42
101050.72
101042.76
101067.12
101042.28
101059.3
101048.54
101050.71
101048.34
101043.67
101042.73
101044.45
101042.62
101044.34
101041.05
101045.74
101043.71
101062.15
101026.88
101052.1
101029.39
101042.53
101027.74
101053.6
101033.79
101038.4
101034.21
101036.16
101033.99
101027.65
101027.43
101027.86
101027.56
101026.53
101027.15
101027.04
101025.72
101037.3
101010.33
101048.43
101018.98
101027.55
101015.49
101027.43
101020.88
101024.25
101020.67
101021.96
101020.07
101012.81
101011.91
101012.83
101011.83
101011.79
101010.41
101010.3
101008.01
101023.41
100995.23
101023.32
101009.08
101015.44
101009.59
101012.3
101008.48
101010
101007.37
101007.46
101005.74
100997.42
100996.75
100997.22
100997.24
100997.35
100995.44
100997.56
100988.84
101010.29
100973.35
101008.58
100995.48
101000.7
100995.72
100997.52
100994.66
100995.73
100993.73
100993.78
100992.66
100982.2
100982.35
100982.08
100982.3
100982.16
100980.59
100984.45
100979.1
100988.33
100974.2
100988.71
100981.22
100986.14
100980.98
100982.92
100980.26
100981.18
100979.27
100979.53
100978.35
100967.89
100968.5
100967.05
100967.59
100969.35
100966.86
100969.89
100965.65
100971.59
100963.82
100973.76
100966.35
100971.12
100966.62
100968.28
100966.02
100966.2
100965.05
100965.18
100963.91
100953.97
100953.02
100954.06
100952.7
100954.38
100952.35
100954.86
100950.97
100956.68
100949.91
100957.45
100950.89
100955.49
100951.84
100953.76
100952.48
100951.83
100950.97
100950.6
100949.81
100939.37
100938.73
100939.68
100938.21
100939.93
100937.54
100940.36
100936.67
100942.06
100935.73
100942.71
100936.29
100940.39
100937.08
100939.06
100937.03
100937.46
100936.6
100936.62
100935.84
100925.02
100924.61
100925.39
100924.35
100925.77
100923.8
100926.24
100923.05
100927.73
100921.56
100928.4
100922.33
100926.03
100923.27
100924.75
100923.24
100923.59
100922.97
100922.9
100922.26
100910.69
100910.08
100911.24
100910.06
100911.59
100909.77
100912.02
100908.95
100913.59
100907.49
100914.31
100908.84
100912.25
100909.29
100910.99
100909.62
100910.06
100909.29
100909.35
100908.78
100898.13
100897.62
100898.81
100897.23
100898.68
100896.58
100898.72
100895.88
100900.38
100894.94
100900.88
100896.22
100899.24
100896.4
100898.22
100896.69
100897.13
100896.43
100896.59
100895.9
100886.05
100885.99
100886.33
100885.29
100886.45
100884.34
100886.23
100883.48
100887.17
100882.53
100887.78
100884.07
100886.86
100884.59
100885.69
100884.59
100885.09
100884.23
100884.51
100884.02
100872.64
100872.47
100872.98
100872.36
100873.28
100872.27
100873.95
100871.71
100874.95
100870.62
100875.51
100871.87
100875.02
100872.82
100873.68
100872.92
100873.27
100872.95
100873.12
100872.73
100861.08
100860.99
100861.31
100860.48
100861.63
100860.54
100862.71
100860.1
100863.46
100859.51
100864.06
100860.43
100863.83
100861.91
100863.08
100862.14
100862.43
100862.03
100862.18
100861.83
100850.75
100850.81
100851.01
100850.68
100851.45
100850.25
100851.79
100849.59
100852.3
100849.2
100853.22
100850.39
100853.19
100851.64
100852.77
100851.94
100852.35
100851.89
100852
100851.72
100840.96
100840.93
100840.99
100840.86
100841.36
100840.45
100841.82
100839.87
100842.45
100839.8
100843.32
100841.3
100843.51
100842.12
100843.09
100842.46
100842.74
100842.28
100842.5
100842
100831.32
100831.3
100831.31
100831.27
100831.59
100831.06
100832.18
100830.84
100833.04
100830.84
100834.28
100832.52
100834.42
100833.31
100834.26
100833.77
100834.1
100833.81
100833.93
100833.67
100822.58
100822.55
100822.54
100822.45
100822.72
100822.49
100823.53
100822.86
100824.61
100822.75
100825.92
100824.61
100826.31
100825.25
100826.15
100825.85
100826.22
100826.02
100826.16
100825.89
100815.69
100815.7
100815.81
100815.86
100815.95
100815.95
100816.42
100815.86
100816.98
100815.86
100818.5
100817.25
100818.92
100818.14
100819.12
100818.86
100819.25
100819.05
100819.21
100819
100809.01
100809.03
100809.08
100809.21
100809.3
100809.35
100809.68
100809.45
100810.4
100809.71
100811.89
100811.13
100812.61
100812.22
100812.88
100812.66
100812.97
100812.81
100812.96
100812.76
100802.76
100802.67
100802.64
100802.74
100802.83
100802.91
100803.23
100803.31
100804.23
100804.09
100806.01
100805.49
100806.85
100806.63
100807.31
100807.27
100807.59
100807.52
100807.65
100807.52
101156.52
101156.62
101155.7
101156.37
101154.82
101155.38
101153.51
101152.98
101148.87
101149.55
101150.09
101145.19
101144.27
101149.12
101141.33
101130.03
101160.92
101151.31
101148.48
101145.73
101150.92
101150.38
101149.98
101149.44
101149.75
101147.97
101146.56
101146.71
101144.4
101140.14
101141.23
101136.77
101138.29
101136.16
101146.93
101126.28
101140.04
101130.25
101133.25
101128.93
101141.19
101140.5
101140.53
101139.26
101140.19
101137.64
101139.11
101136.29
101139.03
101130.77
101134.64
101126.77
101130.43
101127.43
101129.05
101121.25
101121.8
101120.3
101119.61
101119
101129.63
101128.91
101129.8
101128.08
101129.46
101126.73
101128.1
101125.15
101132.24
101114.3
101127.77
101113.56
101120.49
101112.59
101120.32
101102.37
101112.58
101107.21
101109.84
101107.69
101115.98
101114.97
101117.01
101114.42
101115.87
101113.02
101117.88
101113.13
101119.68
101100.58
101116.92
101097.89
101108.73
101097.99
101101.95
101093.48
101088.66
101082.4
101104.31
101120.7
101103.73
101101.63
101104.52
101100.94
101105.72
101100.17
101106.72
101096.58
101112.24
101080.97
101108.32
101069.11
101100.63
101076.32
101100.02
101083.04
101091.48
101079.08
101083.49
101082.64
101090.89
101089.28
101093.65
101091.8
101095.71
101090.93
101093.9
101087.95
101097.33
101081.81
101073.46
101069.53
101080.71
101077.59
101091.45
101090.5
101096.15
101058.49
101064.72
101063.52
101075.65
101074.47
101074.69
101074.56
101077.92
101075.4
101079.39
101071.94
101077.37
101056.53
101069.07
101046.22
101063.4
101059.77
101081.58
101053.83
101069.06
101077.1
101061.29
101054.67
101058.93
101057.35
101068.26
101058.02
101062.24
101059.73
101066.87
101054.32
101066.57
101037.7
101077.62
101050.69
101038.87
101044.92
101056.83
101038.1
101055.2
101048.27
101050.82
101047.77
101044.23
101044.02
101047.36
101045.04
101046.77
101042.93
101049.12
101042.57
101049.74
101029.01
101066.56
101032.74
101038.68
101033.41
101045.6
101034.12
101038.36
101035.38
101036.38
101034.17
101029.79
101029.51
101030.18
101029.95
101030
101028.77
101031.41
101030.07
101029.82
101027.16
101039.31
101019.16
101031.18
101022.83
101030.25
101022.37
101024.57
101021.54
101022.25
101020.62
101013.83
101013.88
101013.79
101013.84
101014.05
101013.93
101013.87
101009.72
101019.69
101005.23
101022.22
101010.8
101017.69
101010.55
101014.33
101009.57
101010.4
101008.42
101008.52
101007.35
100999.8
100999.82
100999.21
100998.9
101000.03
100997.82
100999.67
100993.76
101006.91
100991.83
101007.83
100997.21
101002.9
100996.9
100999.2
100996.04
100996.65
100994.68
100995.1
100993.89
100985.02
100984.75
100984.8
100984.1
100985.49
100982.32
100987.17
100980.81
100989.47
100978.54
100990.06
100983.33
100988.36
100983.44
100985.49
100982.49
100982.82
100981.23
100981.43
100980.43
100970.92
100970.46
100970.82
100970.19
100971.89
100968.88
100972.47
100967.42
100973.23
100966.16
100975.16
100969.47
100973.12
100968.96
100970.81
100968.52
100969.21
100967.11
100967.41
100966.42
100956.19
100955.29
100955.54
100955.86
100957.13
100954.74
100956.92
100953.85
100958.89
100952.93
100959.89
100953.69
100957.93
100954.18
100955.56
100953.44
100953.99
100952.05
100952
100951.04
100942.36
100941.71
100942.62
100941.42
100943.06
100940.83
100943.82
100939.73
100945.39
100938.04
100946.39
100938.81
100943.91
100939.65
100941.75
100939.33
100940.05
100938.23
100938.79
100938.03
100927.76
100927.29
100928.15
100927.01
100928.72
100926.59
100930.15
100925.71
100931.63
100924.06
100932.29
100924.74
100929.78
100926.24
100927.41
100925.98
100926.84
100925.37
100925.74
100925.05
100914.92
100914.6
100915.06
100914.04
100915.13
100913.27
100915.69
100912.66
100917.02
100911.06
100917.46
100911.49
100915.29
100913.07
100914.03
100912.92
100913.26
100912.61
100912.7
100912.16
100901.24
100900.89
100901.42
100900.54
100901.54
100900.09
100902.39
100899.39
100903.97
100898.06
100904.58
100898.69
100902.69
100900.05
100901.18
100900.2
100900.77
100900.07
100900.22
100899.77
100888.25
100888.01
100888.64
100887.78
100888.91
100887.73
100889.7
100887.16
100891.18
100886.04
100892.07
100886.81
100890.08
100887.63
100889.35
100888
100888.63
100887.98
100888.06
100887.6
100875.98
100875.92
100876.23
100875.59
100876.61
100875.31
100876.95
100874.75
100878.14
100874.47
100879.26
100876.01
100877.99
100876.23
100877.39
100876.25
100876.83
100876.09
100876.31
100875.84
100864.49
100864.4
100864.53
100864.15
100864.78
100863.79
100865.35
100863.73
100866.61
100863.22
100867.59
100865.49
100867.29
100865.43
100866.43
100865.51
100866.1
100865.49
100865.66
100865.25
100853.8
100853.8
100853.83
100853.63
100854.21
100853.3
100855.01
100853.08
100856.22
100852.79
100857.7
100854.53
100857.3
100855.46
100856.58
100855.84
100856.27
100855.86
100855.94
100855.6
100844.06
100844.02
100844.04
100843.89
100844.32
100843.66
100844.95
100843.59
100845.97
100843.28
100847.82
100844.47
100847.37
100845.87
100847.07
100846.48
100846.92
100846.49
100846.56
100846.34
100834.79
100834.77
100834.78
100834.73
100834.91
100834.61
100835.67
100834.61
100836.97
100834.59
100838.53
100835.97
100838.58
100837.3
100838.42
100837.86
100838.25
100837.91
100838.07
100837.82
100826.48
100826.45
100826.45
100826.42
100826.55
100826.47
100827.33
100826.35
100828.56
100826.36
100830.05
100828.07
100830.18
100829.56
100830.54
100830.12
100830.52
100830.27
100830.41
100830.24
100819.3
100819.27
100819.28
100819.28
100819.43
100819.43
100819.91
100819.4
100821.11
100819.37
100822.66
100820.93
100823.2
100822.59
100823.44
100823.14
100823.53
100823.33
100823.47
100823.3
100813.04
100812.95
100812.89
100812.93
100813.01
100813.01
100813.3
100813.07
100814.3
100813.23
100815.87
100814.64
100816.54
100816.15
100817.05
100816.95
100817.34
100817.23
100817.37
100817.24
100806.92
100806.91
100806.94
100807.05
100807.15
100807.22
100807.48
100807.58
100808.5
100808.06
100810.17
100809.58
100811.17
100811.03
100811.77
100811.65
100812
100811.88
100812.02
100811.91
101157.28
101157.21
101156.62
101156.37
101155.17
101150.85
101157.29
101157.04
101151.14
101145.6
101161.23
101151.37
101147.97
101146.41
101146.33
101147.53
101155.93
101136.6
101145.51
101144.78
101150.94
101149.5
101149.68
101149.07
101148.12
101147.81
101147.99
101146.88
101144.82
101143.11
101144.83
101143.16
101142.25
101136.44
101138.46
101136.14
101133.75
101130.05
101134.95
101152.22
101141.22
101140.33
101140.56
101138.32
101136.93
101136.26
101139.28
101137.55
101142.65
101134.73
101133.38
101128.74
101129.56
101125.98
101130.56
101125.3
101138.92
101118.63
101128
101124.17
101130.14
101129.67
101129.91
101128.9
101128.67
101127.16
101132.02
101128.46
101132.81
101119.86
101127.43
101113.61
101116.77
101110.24
101136.3
101118.52
101144
101089.51
101094.26
101110.61
101117.17
101116.15
101116.36
101117.64
101119.11
101106.6
101128.79
101117.73
101124.81
101107.33
101120.9
101101.14
101111.84
101099.56
101110.58
101104.91
101108.61
101103.8
101102.89
101089.07
101107.85
101107.68
101107.72
101106.48
101107.47
101104.7
101107.28
101105.7
101107.35
101102.48
101104.31
101075.3
101111.06
101083.94
101125.89
101102.39
101059.98
101073.07
101078.79
101079.27
101095.2
101094.42
101095.14
101093.75
101096.83
101091.05
101097.66
101092.26
101102.09
101078.61
101082.76
101077.34
101095.4
101084.14
101091.38
101084.6
101077.75
101075.31
101074.82
101073.77
101079.93
101079.73
101080.26
101078.64
101083.36
101080.32
101085.84
101089.07
101126.3
101068.02
101049.88
101030.48
101073.94
101056.58
101073.7
101067.37
101067.57
101065.39
101066.19
101063.99
101065.86
101065.65
101066.32
101065.95
101066.65
101067.38
101071.48
101057.6
101074.51
101028.65
101100.27
101031.61
101059.47
101042.72
101060.72
101053.35
101056.63
101052.43
101053.01
101050.81
101051.14
101050.55
101050.53
101049.49
101048.62
101048.04
101050.09
101046.1
101056.37
101041.9
101091.79
100964.15
101074.23
101039.95
101040.6
101038.03
101039.85
101037.13
101037.78
101036.24
101034.71
101034.21
101035.5
101033.97
101034.18
101032.31
101033.21
101032.2
101032.43
101017.1
101051.67
101018.63
101029.53
101024.48
101029.06
101026.12
101027.03
101024.18
101024.36
101022.69
101019.31
101019.02
101019.83
101018.78
101018.94
101015.97
101016.92
101015.65
101018.07
101004.5
101025.99
101011.19
101017.67
101011.1
101015.03
101011.33
101012.59
101010.37
101010.72
101009.36
101002.53
101001.99
101003.85
100999.52
101003.7
100999.99
101004.05
100997.82
101006.01
100993.43
101008.33
100997.46
101002.9
100998.1
101000.15
100997.77
100998.24
100996.7
100996.98
100995.77
100987.64
100986.27
100988.37
100985.25
100988.06
100984.91
100988.44
100983.63
100987.84
100980.98
100992.11
100984.83
100989.22
100984
100986.19
100983.76
100984.65
100982.96
100983.66
100982.48
100972.37
100971.57
100971.99
100971.54
100973.46
100971.13
100974.52
100970.68
100975.46
100966.93
100977.68
100966.11
100973.99
100969.74
100972.39
100969.95
100971.09
100969.78
100970.23
100969.29
100959.43
100957.91
100959.11
100957.92
100959.71
100957.62
100961.07
100956.62
100961.54
100953.55
100963.41
100955.46
100960.12
100956.87
100958.66
100957.09
100957.78
100957.07
100957.73
100956.91
100944.6
100943.55
100944.74
100943.84
100945.4
100943.58
100946.08
100942.95
100947.25
100941.16
100948.9
100942.53
100946.7
100943.88
100945.54
100944.15
100944.85
100944.03
100944.17
100943.37
100931.69
100931.44
100932.27
100931.1
100932.34
100930.44
100932.69
100929.62
100933.81
100928.61
100934.61
100930.12
100932.59
100930.58
100932.19
100930.79
100931.31
100930.5
100930.63
100930.04
100918.4
100918.03
100918.66
100917.67
100919.02
100917.04
100919.33
100915.93
100920.68
100915.05
100921.29
100916.91
100919.64
100917.66
100918.81
100917.82
100918.08
100917.45
100917.55
100917.03
100905.34
100905.12
100905.65
100904.72
100905.94
100904.2
100906.51
100903.63
100907.42
100902.31
100908.39
100903.79
100906.59
100904.86
100905.93
100905.02
100905.42
100904.85
100905.04
100904.54
100892.68
100892.53
100892.89
100892.24
100893.29
100891.47
100893.91
100890.76
100894.78
100889.54
100895.54
100891.11
100894.52
100892.85
100893.79
100893.03
100893.43
100892.91
100893.17
100892.69
100880.61
100880.48
100880.86
100880.19
100881.2
100879.97
100882.02
100879.31
100883.26
100877.83
100884.29
100879.32
100882.98
100880.89
100882.12
100881.44
100881.91
100881.45
100881.63
100881.28
100869.1
100869.06
100869.37
100868.82
100869.69
100868.52
100870.35
100868.06
100871.33
100867.46
100872.74
100868.36
100871.53
100870.15
100871.43
100870.72
100871.24
100870.83
100871.01
100870.67
100858.64
100858.61
100858.7
100858.39
100859.06
100858.09
100859.58
100857.97
100860.67
100857.67
100861.84
100858.86
100861.41
100860.13
100861.31
100860.73
100861.25
100860.79
100861
100860.66
100848.98
100848.97
100849.02
100848.91
100849.28
100848.59
100849.93
100848.2
100850.92
100847.92
100852.08
100849.61
100851.92
100850.91
100852.02
100851.55
100851.9
100851.69
100851.82
100851.52
100839.83
100839.82
100839.88
100839.82
100840.02
100839.56
100840.62
100839.23
100841.71
100839.03
100843.14
100840.81
100843.1
100842.3
100843.31
100843.02
100843.43
100843.22
100843.36
100843.13
100831.58
100831.59
100831.63
100831.64
100831.8
100831.61
100832.34
100831.43
100833.49
100831.25
100834.96
100832.96
100835.25
100834.49
100835.56
100835.26
100835.68
100835.47
100835.63
100835.42
100824.34
100824.34
100824.37
100824.37
100824.49
100824.47
100824.97
100824.4