/*--------------------------------*- C++ -*----------------------------------*\
| =========                 |                                                 |
| \\      /  F ield         | OpenFOAM: The Open Source CFD Toolbox           |
|  \\    /   O peration     | Version:  1.7.x                                 |
|   \\  /    A nd           | Web:      www.OpenFOAM.com                      |
|    \\/     M anipulation  |                                                 |
\*---------------------------------------------------------------------------*/
FoamFile
{
    version     2.0;
    format      ascii;
    class       volScalarField;
    location    "0.006";
    object      rho;
}
// * * * * * * * * * * * * * * * * * * * * * * * * * * * * * * * * * * * * * //

dimensions      [1 -3 0 0 0 0 0];

internalField   nonuniform List<scalar> 
206988
(
1.167235
1.1671716
1.1671494
1.1671281
1.167107
1.1670775
1.1670451
1.1670115
1.1670222
1.1670332
1.1668734
1.1661999
1.1664389
1.1657669
1.1664049
1.1663217
1.1658521
1.1653183
1.1653515
1.1661998
1.167121
1.1670907
1.1670818
1.1670569
1.167046
1.1670235
1.1669985
1.16695
1.1669512
1.1669159
1.1669254
1.1665509
1.1666729
1.1664361
1.1665725
1.1664834
1.166094
1.1656644
1.1661827
1.16705
1.1670402
1.1669998
1.1669994
1.1669992
1.167013
1.1669778
1.1669763
1.1668711
1.1668138
1.1661215
1.1675388
1.1667437
1.1668782
1.1666914
1.1666374
1.1663963
1.166456
1.1662313
1.1666674
1.1672795
1.1668739
1.1670187
1.1670155
1.1670143
1.1669731
1.1670261
1.1670287
1.1671253
1.1674921
1.1684005
1.163911
1.165856
1.1670448
1.1664989
1.1672472
1.166397
1.1669166
1.1670329
1.1672244
1.1676872
1.166994
1.1671829
1.1672767
1.1671566
1.167294
1.1677852
1.1685626
1.1717279
1.1670349
1.1769965
1.1534281
1.1587971
1.1718158
1.1668935
1.1684271
1.1668535
1.1671764
1.1676122
1.1671612
1.1679464
1.1668824
1.1669423
1.1670283
1.1671267
1.167548
1.1685845
1.1714575
1.1827808
1.1561362
1.1705547
1.1736504
1.1742733
1.1538071
1.160262
1.1704973
1.1628781
1.1728338
1.1697319
1.1692277
1.1694254
1.1666862
1.1666548
1.166719
1.1667404
1.167099
1.1674588
1.1694589
1.1734176
1.1641825
1.1783639
1.1620215
1.1674223
1.1668666
1.1688688
1.1647508
1.1629934
1.1698162
1.1686971
1.1690359
1.1688791
1.1665495
1.1665464
1.1665685
1.1666613
1.1667555
1.1670206
1.1678788
1.1695872
1.1670167
1.1777162
1.1597538
1.1671963
1.1659247
1.1677264
1.1642543
1.1649542
1.1671984
1.1668261
1.1672786
1.166818
1.1664374
1.1664343
1.1664503
1.1664796
1.1665436
1.1666216
1.1669282
1.167722
1.1675685
1.1733281
1.160989
1.1658955
1.1655233
1.1671268
1.1645256
1.1654392
1.1655768
1.1656897
1.1659759
1.1663489
1.1663493
1.1663305
1.1663406
1.1663568
1.1664203
1.166388
1.1666328
1.1671529
1.1677644
1.172464
1.1602715
1.1657259
1.1644925
1.1643001
1.1669236
1.1656609
1.1662284
1.1658791
1.165929
1.1664285
1.1662221
1.1662104
1.1662522
1.1662509
1.1662647
1.1663443
1.1662834
1.1666207
1.1664999
1.1663285
1.1663195
1.1681168
1.1631855
1.1651117
1.1659648
1.1656139
1.165732
1.1656018
1.1657392
1.1661161
1.1661354
1.1661264
1.1661594
1.1662095
1.1662908
1.1664763
1.1663239
1.1669475
1.1681113
1.174036
1.1585963
1.1662857
1.1631261
1.1652153
1.165497
1.1657162
1.1649617
1.1651577
1.165236
1.1657127
1.1659934
1.1659807
1.1660341
1.1660611
1.1661884
1.1663161
1.1661828
1.1665121
1.1666152
1.1679967
1.1639154
1.1659754
1.1643209
1.165522
1.1653183
1.1656724
1.1646798
1.1649894
1.1649252
1.165646
1.1659215
1.1659206
1.1659148
1.1659659
1.1660004
1.1661402
1.1661009
1.166499
1.1666744
1.1691069
1.1624028
1.1645292
1.1654441
1.1655424
1.1652157
1.1654326
1.1648024
1.1650772
1.1649704
1.165754
1.1657973
1.1658141
1.1658155
1.1658657
1.1657732
1.1658814
1.1659412
1.1659787
1.1661336
1.1675262
1.1626404
1.1643753
1.1655531
1.1654283
1.1652411
1.1653436
1.1652221
1.1652854
1.1653039
1.1658645
1.1656553
1.1656585
1.1656702
1.1657031
1.1656513
1.165783
1.1658427
1.1658067
1.1654989
1.1666292
1.1636171
1.1646803
1.1653077
1.1651717
1.1654152
1.1654107
1.1653535
1.1653625
1.1653699
1.1658765
1.1655708
1.1655511
1.165602
1.165669
1.1656874
1.1658102
1.1654578
1.1654869
1.1650581
1.1652404
1.1649358
1.164662
1.1652729
1.1650839
1.165457
1.1654034
1.1653563
1.1653488
1.1653317
1.1658082
1.1654603
1.165484
1.1655072
1.165611
1.1656745
1.1658372
1.165168
1.1654164
1.1652313
1.1657767
1.1647096
1.1644926
1.1654409
1.1651885
1.1653583
1.1652988
1.165268
1.1652551
1.1652561
1.1657154
1.1653466
1.1653489
1.1653858
1.165477
1.1655883
1.1658486
1.1656203
1.1664078
1.1645922
1.1657783
1.1640754
1.1645486
1.1652391
1.1651409
1.1651693
1.1651601
1.1651255
1.1651289
1.1651482
1.1656229
1.165148
1.1651754
1.165214
1.1652497
1.1653608
1.1655117
1.1656018
1.1663951
1.1642538
1.1659876
1.1637899
1.164785
1.1648057
1.1649995
1.1649338
1.1649867
1.1649707
1.1649956
1.1650456
1.1655213
1.1649767
1.1649999
1.1650164
1.1650333
1.1650919
1.1651702
1.1652263
1.1657538
1.1644397
1.1658248
1.1637372
1.1648135
1.1645143
1.1648454
1.1646672
1.1648133
1.1648305
1.1648787
1.1649207
1.1653852
1.1649077
1.1648835
1.1648931
1.1649083
1.1649557
1.1650269
1.1649949
1.1653039
1.1645469
1.1654766
1.1638464
1.1647496
1.1644791
1.1647665
1.164528
1.1647077
1.1647168
1.1647749
1.1647878
1.1652675
1.1648112
1.1647982
1.1648107
1.1648301
1.1648031
1.1648457
1.1647844
1.1648773
1.1645122
1.1647308
1.1644334
1.1647409
1.1645498
1.1647475
1.1644745
1.1646327
1.1646015
1.1646553
1.1647042
1.165196
1.1647245
1.164719
1.1647349
1.1647608
1.1647316
1.1648047
1.1648171
1.1651084
1.1641976
1.1645995
1.1645182
1.1646509
1.1646085
1.164694
1.1645152
1.1645835
1.1645576
1.1645914
1.1646728
1.165139
1.1646127
1.1646104
1.1646087
1.1646143
1.1646133
1.1646283
1.1646279
1.1646616
1.1644276
1.1645455
1.1645154
1.1645586
1.1645847
1.1646076
1.1645025
1.1645411
1.164541
1.1645535
1.1646274
1.1650876
1.1645417
1.1645419
1.1645516
1.1645588
1.1644982
1.1645364
1.164557
1.1646232
1.1643574
1.164457
1.1644983
1.1644932
1.1645226
1.1645198
1.1645012
1.1645039
1.1644989
1.1645051
1.1645614
1.1650253
1.1644407
1.1644409
1.1644502
1.1644436
1.1644463
1.1644472
1.1644638
1.1644683
1.1643927
1.1644091
1.1644439
1.1644305
1.1644552
1.1644581
1.1644568
1.1644605
1.1644515
1.1644545
1.1645011
1.1649571
1.1643687
1.1643691
1.1643644
1.1643701
1.1643472
1.1643319
1.1644056
1.1643723
1.1643753
1.1643615
1.1643924
1.1643729
1.1643887
1.1643902
1.1644021
1.1644025
1.1643995
1.1643953
1.1644439
1.1648969
1.1643082
1.1643094
1.1643086
1.1643054
1.1642982
1.1642963
1.1643272
1.1643139
1.1643249
1.1643172
1.1643425
1.1643279
1.1643431
1.1643438
1.1643488
1.164344
1.1643435
1.1643481
1.1643912
1.1648427
1.1642688
1.1642669
1.1642657
1.1642634
1.1642624
1.1642618
1.1642686
1.1642679
1.1642761
1.1642662
1.1642832
1.164283
1.1642965
1.164294
1.1643034
1.1642999
1.1643009
1.1643048
1.1643411
1.1647957
1.1672782
1.1672111
1.1671858
1.1671714
1.1671575
1.1671531
1.1671441
1.1671709
1.1671639
1.1671328
1.1672155
1.1677317
1.1674025
1.1677008
1.1671184
1.1669982
1.166735
1.1662908
1.1661248
1.1666162
1.1671825
1.1671391
1.167098
1.1670966
1.1670986
1.167101
1.1671054
1.1670924
1.1670477
1.1670605
1.1671158
1.1672548
1.167174
1.1672372
1.1670262
1.1669677
1.1667732
1.1666222
1.1667812
1.1672186
1.1670644
1.1670673
1.1670406
1.1670342
1.1670377
1.1670395
1.1670018
1.1669546
1.1669547
1.1667624
1.1671201
1.1669504
1.1670892
1.167008
1.1670053
1.166884
1.1669633
1.1668568
1.1667941
1.1671429
1.1671189
1.1670269
1.1670216
1.1670649
1.1668287
1.1667535
1.1668346
1.1662187
1.167137
1.1634466
1.1692559
1.1655545
1.1683738
1.1660122
1.1689016
1.1672987
1.1667699
1.1659529
1.1684414
1.168542
1.167221
1.1670395
1.1671045
1.1671677
1.1672487
1.1665827
1.1669975
1.1657038
1.1694862
1.1649336
1.1621515
1.1659298
1.1662882
1.1695935
1.1654662
1.1665438
1.1657611
1.1661461
1.1680906
1.16864
1.1667913
1.1667011
1.1667261
1.1666516
1.1665763
1.1662585
1.1668037
1.1641373
1.174803
1.1777766
1.1487581
1.1697988
1.1569957
1.17847
1.1503842
1.1625143
1.16478
1.1665056
1.1674699
1.167667
1.1666398
1.1665915
1.1666002
1.1665675
1.1664603
1.1663429
1.1666138
1.1655027
1.1677037
1.162137
1.165213
1.1640391
1.1679015
1.1727631
1.1572242
1.1643924
1.165146
1.1665438
1.1670069
1.16707
1.1665455
1.1665612
1.1665687
1.166592
1.1665875
1.166563
1.1667366
1.1667295
1.1684382
1.169234
1.1621997
1.1748351
1.1553002
1.16744
1.1590205
1.1642739
1.1649945
1.1662127
1.1657888
1.1661029
1.1664646
1.1664544
1.1664758
1.1664915
1.1665453
1.1666324
1.1668779
1.1670793
1.1685842
1.1689372
1.163675
1.1697617
1.1587838
1.1664375
1.1612942
1.1646833
1.1646049
1.1653547
1.1652019
1.1658333
1.1663728
1.1663393
1.1663868
1.166396
1.1665278
1.1664637
1.1666029
1.1670179
1.1682581
1.1691956
1.163457
1.1645833
1.1662338
1.1671765
1.162713
1.1652147
1.1644401
1.1651215
1.1650577
1.1657129
1.1662402
1.166216
1.1662478
1.1662755
1.1663323
1.1664099
1.1662023
1.166178
1.1670489
1.1637478
1.1687005
1.1662329
1.1660839
1.1672287
1.1631527
1.1651661
1.1645069
1.165049
1.1649771
1.1656908
1.1661462
1.1661338
1.1661725
1.1662202
1.166343
1.1665265
1.1665635
1.1671856
1.1679056
1.173244
1.1591101
1.1651761
1.1645878
1.1664457
1.163404
1.1649635
1.1646975
1.1650368
1.1652014
1.1658013
1.1659996
1.1659981
1.1660387
1.1660586
1.1662145
1.1663336
1.1664757
1.1669129
1.1671827
1.1692422
1.1621216
1.1657057
1.1639227
1.1658288
1.1640425
1.164965
1.1650427
1.1651964
1.1652812
1.1658677
1.1658923
1.165897
1.1659368
1.1659789
1.1661303
1.1663694
1.1666539
1.167663
1.1656899
1.1673784
1.1632104
1.1656215
1.1638117
1.1653445
1.1644419
1.1650571
1.1651789
1.1652661
1.1653287
1.1659019
1.1657629
1.1657799
1.1658074
1.1658349
1.1659316
1.1661309
1.1664901
1.167548
1.1652346
1.166571
1.1636474
1.1653041
1.1640268
1.1651041
1.1649252
1.1652364
1.1652743
1.1653362
1.1654321
1.1659271
1.1656521
1.1656379
1.1656566
1.1656739
1.1657285
1.1658578
1.1661411
1.1668045
1.1653726
1.1663486
1.1638418
1.1649766
1.1642864
1.1650489
1.1652257
1.165315
1.1653476
1.1653576
1.1654272
1.1658884
1.165578
1.1655754
1.1656108
1.1656663
1.1657776
1.1659025
1.1656043
1.1660256
1.1652478
1.1656288
1.1641932
1.1647645
1.1648556
1.165135
1.1653599
1.1653542
1.165317
1.1653101
1.1653624
1.1658136
1.1654717
1.1654734
1.1655004
1.165541
1.1656347
1.1656965
1.1654963
1.1658467
1.1653447
1.1660297
1.1640204
1.1645307
1.1650433
1.1650837
1.1653354
1.1653025
1.1652176
1.1652163
1.1652828
1.1657247
1.1653629
1.1653556
1.1653977
1.1654444
1.1654524
1.1656506
1.1660009
1.166658
1.1646396
1.1662167
1.1634083
1.1644621
1.1648901
1.1649445
1.1652603
1.1651963
1.1651023
1.1650986
1.1651883
1.165652
1.1652179
1.1652231
1.1652383
1.1653048
1.1653785
1.1656179
1.1656582
1.1660731
1.1643586
1.1657298
1.1634772
1.1645112
1.1647577
1.1648236
1.1651613
1.1650667
1.1650186
1.164997
1.1651135
1.1655549
1.1650076
1.1650052
1.1650397
1.1650532
1.1651105
1.1651867
1.1651044
1.1652336
1.1645649
1.1650179
1.164204
1.1646423
1.1646759
1.1647859
1.1649509
1.1648952
1.1649378
1.1649304
1.1649999
1.1654387
1.164894
1.1648837
1.1649033
1.1649013
1.1649184
1.164935
1.1649296
1.1649935
1.1646045
1.1645547
1.1647697
1.1647841
1.1646498
1.1647524
1.1646912
1.1647819
1.1648595
1.1648582
1.1648802
1.1653338
1.1648112
1.1648054
1.1648088
1.1648075
1.1647838
1.1647603
1.1647995
1.1647396
1.1646193
1.1643599
1.1650412
1.1647921
1.1646817
1.1647328
1.1645888
1.1646878
1.164751
1.1647687
1.1647911
1.1652405
1.164733
1.1647354
1.1647573
1.1647721
1.1647167
1.1647927
1.1646393
1.164593
1.1646791
1.164532
1.1647758
1.1646721
1.164661
1.1646873
1.1645714
1.1646244
1.1646413
1.1646698
1.1647121
1.1651667
1.164601
1.1646054
1.1646121
1.1646177
1.1646606
1.1646958
1.1646052
1.1646608
1.1645375
1.1646035
1.1645195
1.1645525
1.1645952
1.1646069
1.1645447
1.1645627
1.164577
1.164597
1.1646378
1.1651021
1.1645506
1.1645498
1.1645585
1.1645835
1.1645273
1.1645725
1.1645185
1.1645181
1.1645018
1.1645153
1.164442
1.1644881
1.1645262
1.1645284
1.1645109
1.1645176
1.1645319
1.1645284
1.1645861
1.1650414
1.1644708
1.1644762
1.1644872
1.1644932
1.1644423
1.1644752
1.1644571
1.1644846
1.1644051
1.1644277
1.1644235
1.1644381
1.1644623
1.1644652
1.1644631
1.1644672
1.1644775
1.1644646
1.1645335
1.1649834
1.1643783
1.1643793
1.1643772
1.1643753
1.1643844
1.1643868
1.1644002
1.1644045
1.1643617
1.1643723
1.1644051
1.1643906
1.164411
1.1644103
1.1644107
1.1644068
1.1644147
1.1644132
1.1644786
1.164924
1.164315
1.164316
1.1643174
1.1643203
1.1643235
1.1643222
1.1643304
1.1643288
1.1643305
1.1643257
1.1643574
1.1643377
1.164357
1.1643537
1.1643562
1.1643535
1.1643558
1.1643563
1.1644255
1.1648692
1.1642712
1.1642736
1.1642739
1.1642782
1.1642763
1.1642782
1.1642827
1.1642821
1.1642858
1.1642784
1.1642961
1.1642927
1.1643103
1.1643094
1.1643147
1.1643109
1.1643134
1.1643178
1.1643695
1.1648167
1.1672985
1.1672628
1.1672453
1.167222
1.1672044
1.1672122
1.1672025
1.1672106
1.1672053
1.167196
1.1671664
1.1671941
1.1671904
1.1672603
1.1670895
1.1669752
1.167027
1.1668096
1.166602
1.1668487
1.1671845
1.1671559
1.1671401
1.1671378
1.1671349
1.1671359
1.167141
1.1671415
1.1671357
1.167149
1.1670245
1.1670956
1.1670394
1.1669522
1.1665145
1.1655616
1.1683242
1.1676207
1.1676057
1.1675941
1.1670831
1.167044
1.1670519
1.1670419
1.1670406
1.1670407
1.1670347
1.1670264
1.1671414
1.1675616
1.166187
1.1667235
1.1670489
1.1670364
1.1665713
1.1662231
1.1675933
1.1673412
1.1672643
1.1674916
1.1668624
1.1669924
1.1669849
1.1669578
1.1668952
1.16675
1.1671133
1.1669131
1.1664589
1.1635434
1.1689329
1.1657269
1.1688425
1.1691784
1.1650039
1.1663557
1.1670295
1.1675134
1.1667376
1.1675321
1.167023
1.1671352
1.167032
1.1671654
1.167406
1.168133
1.1673999
1.1707094
1.1683523
1.1909941
1.1389432
1.1514035
1.1819181
1.1646512
1.1720717
1.1659592
1.1709942
1.168405
1.1696853
1.1696609
1.1664602
1.1664181
1.1661897
1.1658689
1.1649717
1.1630806
1.1666271
1.161802
1.175596
1.1787809
1.1559213
1.1661995
1.1638283
1.1626111
1.1707935
1.1666732
1.170468
1.1685299
1.1696877
1.1695561
1.1665647
1.1665204
1.1664868
1.1662008
1.1659362
1.16532
1.1657902
1.1636357
1.1713003
1.1726871
1.1628729
1.1618411
1.1707206
1.164108
1.1707552
1.1677135
1.1689334
1.1681762
1.169041
1.1684774
1.1665885
1.1665809
1.1665721
1.1664841
1.1664514
1.1663273
1.1663366
1.166014
1.169498
1.1724126
1.1635617
1.1689378
1.1612175
1.1622786
1.1674102
1.1665892
1.1676881
1.1673182
1.1681086
1.1677489
1.1665095
1.1664865
1.1665119
1.1665183
1.1665662
1.1666356
1.1668314
1.1672259
1.1693925
1.1748796
1.1614307
1.1685424
1.1602259
1.1630618
1.166025
1.1659792
1.166351
1.1661527
1.1668489
1.1669063
1.1663768
1.1663591
1.1663798
1.1663956
1.1664623
1.1665734
1.166831
1.1674058
1.1691856
1.1749981
1.1587516
1.1660797
1.1635395
1.1650708
1.1660738
1.1661637
1.1658171
1.165773
1.1662806
1.1664688
1.1662332
1.1662293
1.1662416
1.1662636
1.1663241
1.166439
1.1666133
1.1669091
1.1678758
1.1709036
1.1613867
1.1598551
1.1713102
1.1669784
1.1663093
1.1662841
1.1655433
1.1655438
1.1657327
1.1661959
1.1661595
1.166148
1.1661857
1.1662346
1.1663741
1.1666626
1.1673798
1.1690652
1.1635815
1.161699
1.1683045
1.1640053
1.1683776
1.1665119
1.1659554
1.1660352
1.1653403
1.1653953
1.1654778
1.1660749
1.1660162
1.166013
1.1660424
1.1660962
1.1662061
1.1664378
1.1669884
1.1680921
1.1656384
1.1676348
1.163689
1.1650419
1.1651853
1.1657211
1.1654263
1.1656187
1.1652517
1.1653396
1.1654257
1.1660395
1.1659137
1.1659253
1.1659411
1.1660216
1.1660001
1.1662416
1.1666647
1.1674559
1.166446
1.1691584
1.161148
1.1647041
1.1645038
1.165164
1.1652424
1.1654384
1.1652911
1.1654089
1.1654785
1.166014
1.1658115
1.1658093
1.1658362
1.1659035
1.1658027
1.1660215
1.1663795
1.1669261
1.1662972
1.1682763
1.1613892
1.164453
1.1646373
1.1651384
1.1652343
1.1653554
1.1653625
1.1654005
1.1655038
1.1659898
1.1656857
1.1656629
1.1657056
1.1657495
1.1657287
1.1660703
1.1660728
1.1666903
1.1659508
1.1675717
1.1621772
1.1645045
1.1648342
1.1651504
1.1653427
1.1653655
1.16537
1.165381
1.1654651
1.1659153
1.1656518
1.1656427
1.165664
1.1658071
1.1659284
1.1663237
1.165358
1.1662467
1.1658171
1.1676713
1.162219
1.164662
1.1646708
1.1650091
1.1653206
1.1653093
1.165294
1.1653041
1.1653943
1.1658254
1.1655144
1.1655087
1.1655494
1.1656786
1.1658212
1.1661775
1.1650642
1.1659718
1.1659721
1.1678484
1.1616771
1.1644593
1.1644872
1.1648598
1.1652465
1.1652214
1.1651789
1.1651911
1.1652899
1.1657336
1.1653722
1.165349
1.1654056
1.1654973
1.1656325
1.1659682
1.165423
1.1663191
1.1655741
1.167771
1.1614438
1.1641087
1.1645826
1.1648069
1.1651649
1.1651289
1.1650796
1.1650901
1.1651927
1.1656367
1.165208
1.1652045
1.1652437
1.1652993
1.1653806
1.1656067
1.1654685
1.1661622
1.1647887
1.1659469
1.1621402
1.1641867
1.1646879
1.1648427
1.1650606
1.1650497
1.1649722
1.1649912
1.1650771
1.1655299
1.1650356
1.1650208
1.1650404
1.1650818
1.165127
1.1652431
1.1653098
1.1655107
1.1647401
1.1652273
1.163417
1.1644014
1.1647306
1.1648302
1.1650075
1.1649806
1.1649056
1.1649177
1.1649649
1.165437
1.1648847
1.1648775
1.1648877
1.164899
1.1648845
1.1648729
1.1650207
1.1649213
1.1648623
1.164809
1.1644299
1.1645369
1.1648476
1.1648051
1.16496
1.1648689
1.1648686
1.1648647
1.1649212
1.1653675
1.1648182
1.1648126
1.1648281
1.1648529
1.1648092
1.1648504
1.164774
1.1647699
1.1647726
1.1648495
1.1645283
1.1645699
1.1648304
1.1647633
1.164854
1.1647499
1.164809
1.1647939
1.1648617
1.1653009
1.1647326
1.164738
1.164756
1.1647784
1.164824
1.1649303
1.1648815
1.1652542
1.1641436
1.164729
1.1644111
1.1645604
1.1647259
1.164676
1.1647221
1.1646548
1.1647137
1.1647044
1.1647824
1.1652212
1.1646087
1.1646067
1.164612
1.1646093
1.1646809
1.164683
1.1647714
1.1648578
1.1642836
1.1645766
1.1644417
1.1645367
1.1646169
1.1645881
1.164619
1.1645907
1.1646106
1.1646118
1.1646841
1.1651205
1.1645413
1.1645349
1.1645394
1.1645454
1.1645689
1.164602
1.1646771
1.16482
1.1641866
1.1644238
1.1644769
1.1644921
1.1645342
1.1645305
1.1645541
1.1645573
1.1645298
1.1645327
1.1645828
1.165032
1.1644595
1.1644578
1.1644606
1.1644653
1.1644766
1.1644893
1.1645041
1.1645578
1.1642876
1.1643927
1.1644454
1.1644518
1.1644704
1.1644746
1.1644938
1.1645002
1.1644702
1.1644687
1.1645094
1.1649637
1.1644035
1.164401
1.1644034
1.1644164
1.1643862
1.1644045
1.1643823
1.164401
1.1643713
1.1643784
1.1644004
1.1644024
1.1644161
1.1644126
1.1644232
1.1644231
1.1644093
1.1644177
1.164459
1.1649114
1.1643392
1.1643383
1.1643385
1.164338
1.1643277
1.164336
1.1643297
1.1643332
1.1643405
1.1643335
1.1643533
1.1643476
1.1643605
1.1643585
1.1643601
1.1643606
1.1643549
1.1643664
1.1644163
1.1648638
1.1642769
1.1642747
1.1642734
1.1642659
1.164288
1.1642826
1.164286
1.164287
1.1642935
1.1642899
1.1643061
1.1643009
1.1643125
1.1643085
1.1643207
1.1643252
1.164327
1.1643218
1.1643692
1.1648102
1.1673289
1.167262
1.1672249
1.1672218
1.1672013
1.1672109
1.1671826
1.1671836
1.1671527
1.1671605
1.1671544
1.1671067
1.1671085
1.1671379
1.1670171
1.1668641
1.1670497
1.1667881
1.1665141
1.1666877
1.1671871
1.1671415
1.1671527
1.1671562
1.1671638
1.1671455
1.1671111
1.1671209
1.1671278
1.1670959
1.1670373
1.1670094
1.1670342
1.167
1.1670146
1.166751
1.1669775
1.1667296
1.16683
1.1673231
1.1670427
1.1670393
1.1670313
1.1670429
1.1670376
1.1670382
1.1670343
1.1669967
1.1670363
1.1669449
1.1668974
1.1668904
1.1669342
1.1669123
1.1668003
1.1665677
1.1669323
1.1666733
1.1675765
1.1678881
1.1669942
1.1669786
1.1670006
1.1669312
1.1669512
1.1670009
1.1669725
1.1669874
1.1663964
1.1647374
1.1678097
1.1668436
1.1672138
1.1667689
1.1669821
1.1662952
1.167803
1.1670963
1.1679017
1.1681388
1.1670907
1.1669951
1.1670042
1.1670881
1.1671616
1.1680382
1.1671558
1.1702859
1.1651976
1.1718367
1.1583766
1.1659546
1.1654791
1.1671412
1.1672404
1.1695587
1.1652602
1.165923
1.1681039
1.1685715
1.1662634
1.1661254
1.1664142
1.1660095
1.1662831
1.1654257
1.1645833
1.1606786
1.1694673
1.1590405
1.1759063
1.1570735
1.1757407
1.1607089
1.1822189
1.171754
1.1697689
1.1682219
1.1684214
1.168532
1.1666028
1.1665425
1.1664615
1.1663686
1.1665228
1.1662684
1.1655138
1.1639379
1.1663157
1.1612653
1.1716286
1.1648648
1.1647269
1.1619609
1.1764055
1.1711266
1.1698384
1.1686943
1.168233
1.1681739
1.1666236
1.1666045
1.1666084
1.1666043
1.1667204
1.1667562
1.1665788
1.1665654
1.1662209
1.1654503
1.1691956
1.1684108
1.1615771
1.1622288
1.1713337
1.1687264
1.1692282
1.1686445
1.1674054
1.1674423
1.1665644
1.1665589
1.1667953
1.166801
1.1665099
1.1667896
1.1670728
1.1676545
1.1676482
1.1708232
1.1636331
1.1690157
1.1604425
1.1622421
1.1677173
1.1670985
1.1673067
1.1671194
1.1668329
1.1670032
1.1664108
1.1664163
1.1665009
1.1665331
1.1665344
1.1667378
1.1671147
1.1678966
1.1683516
1.1713286
1.1621045
1.1712638
1.1557655
1.1614806
1.1668244
1.1665502
1.1667206
1.1666187
1.1666389
1.1667773
1.1662765
1.1662801
1.1663039
1.1663454
1.1664252
1.1665963
1.1668957
1.1675928
1.1685018
1.1731903
1.1574531
1.1649858
1.1619126
1.1637368
1.1665405
1.1663147
1.1663325
1.1662541
1.1663563
1.166542
1.1661728
1.1661774
1.1662058
1.1662706
1.1663864
1.1666209
1.1669398
1.1676362
1.1674738
1.1722218
1.1583461
1.1638879
1.1643994
1.1650045
1.1660139
1.1659762
1.1658817
1.1658557
1.1658738
1.1663296
1.1660496
1.1660363
1.1660636
1.1661095
1.1661932
1.1663571
1.1665802
1.1671243
1.1672393
1.1694831
1.1613237
1.1644209
1.1649589
1.1653478
1.1656458
1.1657262
1.1655937
1.1656379
1.1656416
1.1661813
1.1659115
1.1659002
1.1659243
1.1659498
1.1660103
1.1661235
1.1663749
1.1668156
1.1670545
1.1690792
1.1614168
1.1645515
1.1648851
1.1652705
1.1654959
1.1655653
1.1655008
1.1655456
1.1655672
1.1661081
1.1658032
1.1657877
1.1658071
1.165829
1.1658652
1.1659618
1.1662412
1.1665861
1.1664244
1.1675957
1.1622902
1.1651241
1.1645317
1.1651979
1.1653153
1.1654105
1.1654447
1.1654765
1.1655301
1.166018
1.1656545
1.1656355
1.1656393
1.1656635
1.165721
1.1658733
1.1661288
1.1665287
1.1659008
1.1672861
1.1629694
1.165118
1.1643548
1.165127
1.1650887
1.1652842
1.165278
1.1653498
1.1654313
1.1659052
1.165593
1.1655827
1.1656068
1.1656612
1.1656906
1.1658296
1.1657523
1.1661869
1.1658833
1.1671277
1.1630951
1.1653204
1.1641021
1.164951
1.1649814
1.1651901
1.1651569
1.165248
1.1653249
1.1657886
1.1654783
1.1654674
1.1655067
1.16556
1.1655797
1.1656955
1.1654738
1.1658882
1.1659259
1.167149
1.1630722
1.1653096
1.1638275
1.1647486
1.1648917
1.1651009
1.1650661
1.1651542
1.1652146
1.165702
1.1653871
1.1653741
1.1654081
1.1654981
1.1656007
1.1657756
1.1651251
1.1655192
1.165686
1.1664301
1.1632297
1.1651683
1.1637142
1.1646888
1.1648056
1.1650148
1.1649908
1.1650728
1.1651217
1.1656066
1.1652298
1.1652197
1.1652531
1.1653468
1.165445
1.1656489
1.1649738
1.1653328
1.1651215
1.1654436
1.1638961
1.164906
1.1641729
1.1648061
1.1647525
1.1649566
1.1649164
1.1649878
1.1650245
1.1655067
1.165036
1.1650246
1.1650399
1.1650764
1.1651312
1.16515
1.164971
1.1650038
1.1650425
1.1650543
1.1644083
1.1647844
1.1647527
1.164879
1.1648283
1.1649394
1.1649135
1.1649492
1.1649721
1.165432
1.1649168
1.1649109
1.164917
1.1649278
1.1649704
1.1649947
1.1650291
1.165125
1.1647202
1.1649903
1.1644871
1.1647434
1.1649317
1.1648658
1.1649313
1.1649168
1.164893
1.1649049
1.164931
1.1653759
1.1648429
1.1648413
1.1648559
1.1648803
1.164896
1.1649591
1.1648808
1.165039
1.1645145
1.1647689
1.1646134
1.1647163
1.1648451
1.1647965
1.1648615
1.1648238
1.1648351
1.1648285
1.16487
1.1653202
1.1647641
1.1647677
1.1647794
1.1648054
1.1648027
1.1648503
1.1647909
1.1648911
1.1644617
1.1646926
1.164574
1.1646521
1.164737
1.1647075
1.1647528
1.1647173
1.1647579
1.1647423
1.1647977
1.1652423
1.1646743
1.1646729
1.1646664
1.1646978
1.164693
1.1647507
1.1646652
1.164772
1.1644397
1.1646294
1.1645028
1.1645815
1.164644
1.1646397
1.164653
1.1646361
1.164648
1.1646354
1.1647041
1.1651537
1.1645814
1.1645812
1.1645708
1.1645969
1.1645951
1.1646472
1.1646278
1.1647474
1.1643197
1.1644957
1.1644798
1.1645231
1.1645736
1.164577
1.1645902
1.1645881
1.1645626
1.1645608
1.1646234
1.1650751
1.1644867
1.164487
1.1644827
1.1644846
1.1644952
1.1644992
1.1645066
1.16451
1.1644053
1.1644475
1.1644736
1.1644764
1.1645052
1.1645139
1.1645266
1.1645251
1.1644948
1.1645032
1.1645554
1.1650001
1.1644235
1.1644207
1.1644229
1.1644257
1.1644213
1.1644257
1.1644087
1.1644059
1.1644324
1.1644139
1.1644335
1.1644239
1.164446
1.1644452
1.1644557
1.1644528
1.1644444
1.1644489
1.1644996
1.1649455
1.1643645
1.164364
1.1643641
1.1643682
1.1643651
1.1643672
1.1643588
1.1643598
1.1643781
1.1643642
1.1643848
1.1643756
1.1643923
1.1643877
1.1643949
1.1643941
1.1643931
1.1643977
1.1644451
1.1648977
1.1643083
1.1643073
1.1643105
1.1643102
1.1643118
1.1643127
1.1643164
1.1643166
1.1643278
1.1643229
1.1643405
1.1643339
1.1643462
1.1643446
1.1643526
1.1643515
1.1643506
1.1643486
1.1644003
1.1648513
1.1673182
1.1672577
1.1672236
1.1672177
1.1671975
1.16715
1.167192
1.1671991
1.1671469
1.1671174
1.1672394
1.1671713
1.1671322
1.1670851
1.1669934
1.1668026
1.1663715
1.1655924
1.1659594
1.1665234
1.1671592
1.1671346
1.1671329
1.1671273
1.1671196
1.1671194
1.1671131
1.1671027
1.1671313
1.1671459
1.1669659
1.1670193
1.1670372
1.1669652
1.1668936
1.1667025
1.1664592
1.1660965
1.1665649
1.1672876
1.1670445
1.1670223
1.1670428
1.1670212
1.1669881
1.1670134
1.16702
1.1670531
1.1670651
1.1678746
1.1659709
1.1665629
1.1667483
1.1668852
1.1666535
1.1658524
1.1678468
1.1667891
1.1675274
1.1680023
1.1668486
1.166855
1.1668526
1.1668842
1.1668522
1.1668249
1.166943
1.1671465
1.1666772
1.1669487
1.1659989
1.1647465
1.1681524
1.1674581
1.1673867
1.1675999
1.1670834
1.1663726
1.1689594
1.1685342
1.1664921
1.1663415
1.1661743
1.1658774
1.1664287
1.1650374
1.1668865
1.1632705
1.1695861
1.1618606
1.1742872
1.1683728
1.1613058
1.1607552
1.171694
1.1653499
1.1758476
1.1696796
1.1703996
1.1694893
1.1666297
1.1665368
1.1665123
1.1664812
1.166749
1.1665315
1.1679204
1.1696857
1.1664687
1.1763911
1.1503592
1.1516354
1.1796406
1.1644335
1.1757676
1.1692957
1.1729052
1.169902
1.1694884
1.1692103
1.1667523
1.1667311
1.1666841
1.1666606
1.1667813
1.1668638
1.167349
1.1674193
1.1617863
1.1577775
1.1735916
1.1595633
1.1718966
1.1640627
1.1745225
1.1694619
1.1727958
1.1699945
1.1690181
1.168894
1.1666972
1.166679
1.1667007
1.1667359
1.16688
1.1670378
1.1674504
1.1680469
1.1642924
1.1650404
1.1671404
1.1623635
1.1688375
1.1645381
1.1710273
1.1682131
1.1714297
1.169226
1.1686818
1.168404
1.1666153
1.166617
1.1666625
1.1667259
1.1668443
1.1670815
1.1672333
1.1678934
1.1665358
1.1674815
1.1657721
1.1646341
1.1664537
1.165368
1.1673799
1.1668168
1.1688
1.1676901
1.1679367
1.167859
1.1665018
1.1664983
1.1665413
1.1666197
1.1667934
1.167126
1.167431
1.1691095
1.1676243
1.1722327
1.1599628
1.1629978
1.1652765
1.1644878
1.1674278
1.1668104
1.1675348
1.1669385
1.1670181
1.1672603
1.1663843
1.1663694
1.1664267
1.1664941
1.1665634
1.1668823
1.1671618
1.1683119
1.168291
1.1741946
1.1575865
1.1642052
1.16363
1.1646038
1.1664677
1.16639
1.1664977
1.1662779
1.1663803
1.166586
1.1663131
1.1662937
1.1663748
1.1664848
1.1665374
1.1670059
1.1679279
1.1709127
1.1635792
1.1672855
1.1630008
1.1658168
1.1633642
1.1647191
1.1656002
1.1658191
1.1657568
1.1657537
1.1657497
1.1662728
1.1660919
1.1660805
1.1661548
1.1661776
1.1661855
1.1664174
1.1667966
1.1676572
1.1663368
1.1690147
1.1622397
1.1651529
1.1636206
1.1649391
1.1653748
1.1656131
1.1655481
1.1655946
1.1655728
1.1661598
1.1659336
1.1659227
1.1659718
1.1659935
1.1660377
1.1662183
1.1660513
1.1664893
1.1667946
1.1682537
1.1623336
1.1648372
1.164672
1.1652214
1.1654122
1.1655357
1.1655066
1.1655542
1.165601
1.1661112
1.1657925
1.1657842
1.1658158
1.1658467
1.1659183
1.1660584
1.1658185
1.1661831
1.1663523
1.1670645
1.1633202
1.1648524
1.165018
1.1653372
1.1654151
1.1654722
1.1654981
1.1655274
1.1656126
1.1660552
1.1656792
1.1656581
1.1656438
1.1656799
1.1657305
1.1658145
1.1658145
1.1660276
1.1657939
1.1662321
1.1640797
1.1649066
1.1651918
1.1653205
1.1653454
1.1653968
1.1654439
1.165462
1.1655526
1.1659899
1.1655973
1.1655695
1.1655769
1.1656259
1.1655619
1.1656434
1.1656065
1.1657354
1.16561
1.1658855
1.1645214
1.1652209
1.1650138
1.1651733
1.1652967
1.1653229
1.1653744
1.1653802
1.165465
1.1659203
1.1655114
1.1655029
1.1655413
1.1655948
1.1655664
1.1657263
1.1653881
1.1656741
1.1653895
1.1657198
1.1646285
1.1652293
1.1647358
1.1649795
1.1652671
1.1652521
1.1653278
1.1653227
1.1653992
1.165855
1.1653842
1.1653855
1.1654344
1.1654957
1.1655458
1.1657453
1.165425
1.1661286
1.164794
1.1658438
1.1641954
1.1649504
1.1646763
1.1649053
1.165204
1.1651733
1.1652763
1.1652616
1.1652963
1.1657519
1.1652177
1.1652003
1.1652216
1.1652424
1.16532
1.165379
1.1652262
1.1655011
1.1648536
1.1654007
1.1641481
1.1646967
1.1649684
1.1649697
1.1651854
1.1651554
1.1651798
1.165152
1.1651968
1.1656531
1.1650682
1.1650732
1.1650838
1.165102
1.1651217
1.165172
1.1651778
1.1653101
1.1644806
1.1642917
1.1650937
1.1647969
1.1651772
1.1649955
1.1652042
1.1651226
1.1651013
1.1650715
1.165131
1.1655654
1.1649616
1.16497
1.1649797
1.1650029
1.1650088
1.1650827
1.1650797
1.1651642
1.1644452
1.1644452
1.1652877
1.1649013
1.1651187
1.1649515
1.1651078
1.1650254
1.1650069
1.1649805
1.165044
1.1654688
1.1649068
1.1649076
1.1649126
1.1649359
1.1648927
1.1649617
1.1649583
1.1650914
1.1644798
1.1647945
1.1648521
1.1648093
1.1649674
1.1648854
1.1649231
1.1648871
1.1648887
1.1648764
1.1649341
1.1653675
1.1648252
1.1648287
1.1648389
1.16488
1.1648908
1.1650321
1.1645146
1.1646742
1.1646968
1.1647591
1.1646571
1.1647213
1.1648137
1.1647895
1.1647595
1.1647568
1.1647551
1.1647554
1.1648189
1.1652664
1.1647547
1.1647573
1.1647025
1.1647408
1.16475
1.1648396
1.1645351
1.1646429
1.1646299
1.164674
1.1645865
1.1646444
1.1646932
1.1646964
1.1646591
1.1646664
1.1646517
1.1646587
1.1647232
1.165186
1.1646397
1.164645
1.1646032
1.1646208
1.1646314
1.1646632
1.1645897
1.1646849
1.1644717
1.1645635
1.1645523
1.164573
1.1646142
1.1646192
1.1646099
1.1646162
1.1645983
1.1646044
1.164662
1.1651154
1.1645373
1.1645356
1.1645221
1.1645309
1.1645356
1.1645416
1.1645043
1.1645295
1.1644874
1.1645056
1.1645223
1.1645182
1.1645548
1.1645536
1.1645613
1.1645561
1.1645464
1.1645491
1.1645971
1.1650431
1.1644643
1.1644658
1.1644648
1.1644701
1.1644519
1.164461