/*--------------------------------*- C++ -*----------------------------------*\
| =========                 |                                                 |
| \\      /  F ield         | OpenFOAM: The Open Source CFD Toolbox           |
|  \\    /   O peration     | Version:  1.7.x                                 |
|   \\  /    A nd           | Web:      www.OpenFOAM.com                      |
|    \\/     M anipulation  |                                                 |
\*---------------------------------------------------------------------------*/
FoamFile
{
    version     2.0;
    format      ascii;
    class       volScalarField;
    location    "0.006";
    object      T;
}
// * * * * * * * * * * * * * * * * * * * * * * * * * * * * * * * * * * * * * //

dimensions      [0 0 0 1 0 0 0];

internalField   nonuniform List<scalar> 
206988
(
299.82957
299.8456
299.85078
299.85601
299.8586
299.8657
299.87219
299.87958
299.87263
299.8678
299.89671
300.07308
299.99481
300.1519
299.98865
300.00333
300.12637
300.25965
300.24939
300.0327
299.83938
299.84555
299.8459
299.84975
299.85025
299.85473
299.86017
299.8686
299.86584
299.87033
299.86677
299.94624
299.90562
299.96417
299.92685
299.94765
300.07529
300.13974
300.00259
299.77843
299.82915
299.83782
299.83821
299.83486
299.83223
299.83628
299.83937
299.856
299.8794
300.03547
299.68695
299.85662
299.83578
299.86389
299.88156
299.93278
299.91454
299.97018
299.83836
299.6986
299.83491
299.79637
299.79782
299.79589
299.80711
299.79027
299.78997
299.75668
299.68318
299.4097
300.59957
300.05262
299.7726
299.88767
299.70423
299.90538
299.77031
299.73547
299.67037
299.55629
299.76326
299.71266
299.69416
299.71975
299.68765
299.55851
299.35855
298.54572
299.75814
297.17485
303.30452
301.83169
298.5335
299.74392
299.37522
299.74691
299.66008
299.54366
299.6529
299.45571
299.76055
299.74286
299.72251
299.69275
299.58916
299.31273
298.58524
295.70985
302.55756
298.73966
298.06479
297.79349
303.15315
301.4092
298.83961
300.75982
298.12752
298.99393
299.08799
299.03889
299.76036
299.76352
299.75373
299.73662
299.65864
299.54695
299.06461
298.02205
300.43369
296.74893
301.02538
299.5098
299.71015
299.17728
300.25409
300.68949
298.92658
299.21023
299.12382
299.16094
299.7557
299.75428
299.755
299.72318
299.70522
299.63122
299.42492
298.96355
299.66418
296.8474
301.67325
299.43977
299.96666
299.42588
300.3622
300.14182
299.58019
299.63581
299.53198
299.64462
299.7439
299.74104
299.73682
299.72862
299.72062
299.68797
299.63197
299.39244
299.48059
297.93358
301.2868
299.74181
300.00877
299.50557
300.25337
299.96532
299.94553
299.90467
299.83255
299.73189
299.72587
299.72165
299.71847
299.71304
299.72189
299.68818
299.65693
299.51273
299.38108
298.15093
301.35077
299.83883
300.18421
300.20506
299.56481
299.87161
299.73265
299.81672
299.80548
299.67306
299.70218
299.69963
299.69853
299.68873
299.69823
299.67381
299.6926
299.60183
299.64347
299.65902
299.74416
299.19192
300.51008
299.98175
299.76943
299.84915
299.82338
299.84846
299.81491
299.71365
299.68115
299.68105
299.67608
299.65845
299.64321
299.5926
299.6345
299.46618
299.1979
297.64186
301.66348
299.63573
300.47692
299.91719
299.84608
299.78181
299.97827
299.9215
299.9022
299.77592
299.67408
299.671
299.6657
299.64797
299.62907
299.58159
299.6299
299.52761
299.53195
299.13034
300.24014
299.6777
300.11697
299.79403
299.8484
299.74961
300.00669
299.92157
299.93879
299.74979
299.6478
299.6441
299.65333
299.63188
299.63062
299.58511
299.60674
299.49077
299.47063
298.81624
300.57443
300.00726
299.78182
299.7434
299.83133
299.76755
299.93123
299.8555
299.88358
299.67893
299.63661
299.63064
299.6338
299.61647
299.64647
299.61075
299.6069
299.58338
299.5607
299.18276
300.46588
299.99968
299.70729
299.72788
299.77982
299.74592
299.77872
299.7581
299.75389
299.60705
299.63053
299.628
299.62775
299.61544
299.6337
299.59239
299.58627
299.5836
299.67863
299.36785
300.16908
299.87287
299.72327
299.74725
299.68892
299.68355
299.70056
299.69429
299.69302
299.56039
299.60941
299.61283
299.60244
299.58148
299.58156
299.54326
299.64277
299.62351
299.74882
299.68229
299.78284
299.83478
299.68772
299.72665
299.63501
299.64349
299.6574
299.65594
299.66092
299.53618
299.5953
299.58766
299.58421
299.55388
299.54225
299.49403
299.67399
299.59972
299.66086
299.50281
299.79666
299.83563
299.60211
299.65635
299.61789
299.62901
299.63876
299.63917
299.63957
299.51946
299.58305
299.58107
299.574
299.54691
299.5229
299.44993
299.51621
299.30408
299.78334
299.46165
299.91782
299.78043
299.61294
299.62975
299.62718
299.62527
299.63585
299.63237
299.62799
299.50417
299.59391
299.58566
299.57775
299.56555
299.54129
299.49722
299.48133
299.26831
299.83012
299.3691
299.95039
299.68086
299.68492
299.6282
299.64947
299.63205
299.63773
299.62898
299.61665
299.49279
299.59885
299.592
299.58978
299.58287
299.57161
299.5469
299.53912
299.39532
299.74388
299.37381
299.92656
299.63651
299.72244
299.63158
299.68127
299.64059
299.63761
299.62318
299.61295
299.49209
299.58164
299.58737
299.58639
299.58009
299.57125
299.54848
299.56271
299.47543
299.68019
299.42808
299.86256
299.61841
299.69625
299.61719
299.68236
299.63347
299.63249
299.61584
299.61303
299.48841
299.57339
299.57657
299.57404
299.56737
299.57692
299.56164
299.58276
299.55143
299.655
299.58651
299.67808
299.58805
299.64389
299.58924
299.66292
299.62004
299.62937
299.61406
299.60197
299.47441
299.56273
299.56398
299.56015
299.55238
299.56186
299.53975
299.54129
299.46015
299.70327
299.58954
299.62342
299.58053
299.59805
299.57252
299.62166
299.60222
299.6102
299.60029
299.57989
299.45904
299.56059
299.56108
299.56162
299.55977
299.56139
299.55514
299.55942
299.54554
299.61404
299.57487
299.59453
299.57588
299.57553
299.56654
299.59652
299.58506
299.58636
299.5822
299.56377
299.44459
299.55193
299.55178
299.54938
299.54734
299.5636
299.55223
299.5504
299.52897
299.60477
299.57165
299.572
299.56661
299.56508
299.5632
299.5707
299.5688
299.57126
299.56887
299.55484
299.43481
299.55386
299.55383
299.55158
299.55324
299.55283
299.55186
299.54968
299.54502
299.57091
299.56062
299.5614
299.55908
299.55845
299.55555
299.55844
299.55648
299.55988
299.55842
299.54688
299.42895
299.54938
299.54913
299.55034
299.5488
299.5549
299.55865
299.54115
299.54782
299.55266
299.55102
299.55196
299.5524
299.55385
299.55175
299.55123
299.55037
299.55219
299.55271
299.54064
299.42357
299.54401
299.5437
299.5439
299.5448
299.54692
299.54749
299.54049
299.54323
299.5448
299.54331
299.54471
299.54515
299.54639
299.54506
299.54615
299.54687
299.54804
299.54639
299.53574
299.41912
299.53932
299.53934
299.53945
299.54009
299.54036
299.54046
299.53928
299.53933
299.53982
299.54036
299.54232
299.54036
299.54152
299.54166
299.54147
299.54219
299.54284
299.54156
299.53261
299.41531
299.81762
299.83489
299.84007
299.84475
299.84425
299.84658
299.84567
299.84085
299.84456
299.83731
299.80901
299.67061
299.74904
299.65593
299.78699
299.84089
299.91808
300.02249
300.06362
299.92877
299.82599
299.83548
299.84416
299.84123
299.83872
299.8359
299.83278
299.83338
299.84195
299.83559
299.81557
299.76492
299.78848
299.75952
299.82053
299.84357
299.85962
299.92007
299.8713
299.72851
299.82555
299.82308
299.83027
299.82937
299.82858
299.82339
299.83637
299.83646
299.8446
299.87019
299.79811
299.81868
299.78112
299.78126
299.78084
299.80706
299.79501
299.76322
299.82462
299.70605
299.77441
299.79663
299.79772
299.78629
299.84427
299.86217
299.84132
299.99033
299.77844
300.68484
299.22679
300.13249
299.43316
300.01443
299.28376
299.67193
299.82935
300.01471
299.37163
299.35983
299.70621
299.75104
299.73405
299.71155
299.70398
299.86592
299.766
300.08277
299.14234
300.25675
301.0281
299.97793
299.93757
299.04768
300.13821
299.79709
300.03909
299.91755
299.43505
299.28212
299.78618
299.81052
299.8101
299.81857
299.84682
299.90415
299.78887
300.4245
297.7601
296.92014
304.52474
298.90504
302.3241
296.75349
304.04936
300.85829
300.26096
299.81153
299.55774
299.50391
299.77223
299.7825
299.78443
299.78223
299.81497
299.83781
299.78587
300.0532
299.52773
300.88687
300.20444
300.3575
299.45435
298.16724
302.20205
300.34876
300.126
299.76366
299.64792
299.62726
299.76195
299.75647
299.7565
299.74857
299.75116
299.75104
299.71915
299.69229
299.27083
299.01045
300.98944
297.55462
302.68867
299.52821
301.71099
300.32239
300.14299
299.81549
299.92944
299.83996
299.73998
299.7393
299.73381
299.72616
299.71665
299.68831
299.65834
299.54495
299.23941
299.01506
300.53454
298.84996
301.73448
299.70232
301.07978
300.16709
300.21033
299.99663
300.04116
299.8702
299.71991
299.72368
299.72064
299.71053
299.70656
299.66073
299.65966
299.54916
299.26012
298.99331
300.52181
300.12058
299.75259
299.47736
300.66011
299.99022
300.19871
300.01685
300.0321
299.86134
299.70085
299.70455
299.70073
299.69206
299.67915
299.65626
299.71301
299.7272
299.4874
300.32104
299.12471
299.67974
299.75017
299.45583
300.50046
299.96548
300.14505
299.98902
300.0155
299.82336
299.6811
299.68114
299.67472
299.65892
299.63036
299.58213
299.57322
299.40358
299.2477
297.84278
301.52476
299.92293
300.09021
299.60008
300.38885
299.9757
300.04923
299.95323
299.91364
299.75401
299.67304
299.67035
299.66521
299.64926
299.62283
299.57547
299.55692
299.42465
299.39388
298.81005
300.70806
299.7497
300.2206
299.7144
300.18008
299.93291
299.91515
299.8699
299.84867
299.69408
299.65583
299.65357
299.64632
299.63077
299.59935
299.52698
299.46802
299.19253
299.72457
299.25478
300.36979
299.7254
300.20359
299.79474
300.0318
299.86598
299.8361
299.80904
299.79348
299.64285
299.64809
299.64155
299.6371
299.62584
299.6076
299.5482
299.46637
299.18173
299.79079
299.42618
300.20695
299.75945
300.1021
299.81165
299.86186
299.77489
299.76765
299.74709
299.72306
299.59383
299.63349
299.63524
299.6329
299.62478
299.6168
299.57522
299.51287
299.32916
299.71212
299.44157
300.11158
299.79808
299.98784
299.78173
299.73787
299.70677
299.70415
299.69605
299.67977
299.55908
299.61033
299.60916
299.60256
299.5847
299.56062
299.522
299.60745
299.48703
299.70177
299.58395
299.97687
299.80971
299.79709
299.7172
299.66234
299.65884
299.6707
299.66829
299.65566
299.53729
299.59546
299.59349
299.58926
299.57474
299.55562
299.53296
299.59276
299.49156
299.63451
299.43947
299.97746
299.82809
299.70579
299.68987
299.62836
299.63179
299.6561
299.65264
299.63694
299.52075
299.58195
299.58276
299.57415
299.55892
299.56137
299.50446
299.42238
299.24319
299.77468
299.35105
300.09256
299.80545
299.70506
299.68406
299.6076
299.61921
299.64581
299.64354
299.62172
299.50057
299.5795
299.57697
299.57433
299.55514
299.54039
299.47403
299.47136
299.35445
299.80667
299.43769
300.03479
299.75398
299.70021
299.67651
299.59453
299.61453
299.62944
299.63177
299.60266
299.48783
299.59507
299.59405
299.588
299.58167
299.5705
299.54711
299.57435
299.53261
299.71496
299.58419
299.80895
299.6834
299.68435
299.64951
299.61155
299.62253
299.61336
299.61332
299.59615
299.48178
299.59044
299.59281
299.58927
299.58706
299.58587
299.57616
299.58354
299.55884
299.66807
299.66836
299.62737
299.61151
299.65509
299.62395
299.64457
299.61799
299.60017
299.59812
299.59292
299.47484
299.57741
299.57892
299.57871
299.57772
299.586
299.58786
299.5818
299.59013
299.6304
299.68454
299.52366
299.57662
299.61295
299.59628
299.63673
299.60913
299.59441
299.58812
299.58306
299.4663
299.56426
299.56317
299.55759
299.55269
299.56879
299.5462
299.59023
299.59638
299.58298
299.60979
299.56077
299.57798
299.58689
299.57787
299.61048
299.59541
299.59245
299.58395
299.57368
299.45576
299.5667
299.56546
299.56385
299.56207
299.55212
299.54087
299.56833
299.55001
299.5899
299.56321
299.59811
299.58084
299.57577
299.57084
299.58941
299.58342
299.58137
299.57575
299.56576
299.44592
299.55434
299.5545
299.55226
299.54562
299.56052
299.54748
299.56474
299.56032
299.57231
299.56068
299.59077
299.57123
299.5674
299.56531
299.57205
299.56937
299.567
299.56692
299.5526
299.43467
299.55152
299.55018
299.5475
299.54586
299.55867
299.54959
299.55573
299.54447
299.5724
299.56059
299.57118
299.56064
299.56054
299.55845
299.56126
299.55919
299.55768
299.56012
299.54286
299.42653
299.55003
299.54979
299.55035
299.55072
299.54859
299.54778
299.54575
299.54247
299.56066
299.55171
299.55356
299.55165
299.55248
299.55141
299.55376
299.55407
299.55308
299.55281
299.53642
299.42132
299.54564
299.5456
299.54542
299.54498
299.54449
299.54487
299.54363
299.54331
299.54794
299.54466
299.54556
299.5463
299.54723
299.54665
299.54879
299.54905
299.54953
299.54893
299.53157
299.41701
299.54162
299.54133
299.54172
299.54125
299.54227
299.54197
299.54134
299.54119
299.54263
299.54125
299.54395
299.54184
299.54284
299.5423
299.54337
299.54411
299.54441
299.54294
299.53003
299.41463
299.81407
299.82306
299.82599
299.83048
299.83253
299.8305
299.82855
299.82923
299.82969
299.8279
299.82693
299.81995
299.80689
299.80154
299.82196
299.83963
299.83653
299.88992
299.94809
299.87231
299.82868
299.83482
299.83781
299.83392
299.83143
299.8288
299.82329
299.82349
299.81462
299.80939
299.84167
299.81015
299.81662
299.83855
299.94424
300.16285
299.46476
299.66697
299.66974
299.64782
299.8244
299.83263
299.83238
299.8296
299.83032
299.82354
299.8288
299.81913
299.79665
299.66717
300.03791
299.86607
299.78907
299.78289
299.89629
299.9756
299.60837
299.64838
299.73292
299.66944
299.84414
299.80943
299.81177
299.81451
299.83525
299.86363
299.77876
299.81648
299.95035
300.65818
299.30949
300.07884
299.31991
299.20128
300.2795
299.91049
299.74189
299.61983
299.82193
299.63283
299.75919
299.72852
299.75513
299.71955
299.66644
299.47729
299.67293
298.8035
299.42858
293.70469
307.15983
303.76095
295.9736
300.33945
298.4512
299.97506
298.68754
299.34952
299.03741
299.0426
299.86331
299.86537
299.93238
299.99972
300.24928
300.72062
299.84289
301.04803
297.56477
296.67424
302.6151
299.91073
300.53046
300.82978
298.75861
299.77772
298.80895
299.28521
299.01399
299.04333
299.80214
299.81171
299.8229
299.89059
299.96454
300.11242
300.01
300.53803
298.6001
298.21181
300.75884
300.96706
298.64927
300.47882
298.74736
299.4867
299.1887
299.35797
299.14103
299.27286
299.75783
299.76139
299.7648
299.78144
299.79357
299.8134
299.82236
299.87711
299.01034
298.22807
300.58216
299.12264
301.06353
300.79677
299.57239
299.71323
299.48682
299.52431
299.33462
299.41526
299.72927
299.73144
299.7287
299.71795
299.71111
299.674
299.65037
299.52335
299.0144
297.60895
301.08586
299.14184
301.32573
300.56736
299.87582
299.81387
299.7688
299.78783
299.61543
299.59365
299.71578
299.71756
299.71735
299.70785
299.69583
299.65751
299.60526
299.45174
299.05049
297.46726
301.71326
299.7498
300.44326
300.00447
299.82315
299.74127
299.84405
299.84297
299.71824
299.66343
299.70516
299.70555
299.70364
299.69711
299.67851
299.65081
299.60573
299.52584
299.31222
298.45859
301.01776
301.32743
298.40581
299.47775
299.685
299.67204
299.8725
299.86173
299.81697
299.69229
299.68009
299.68037
299.67341
299.65788
299.62191
299.54374
299.3594
298.92103
300.37557
300.77841
299.16102
300.22361
299.11896
299.58003
299.73104
299.69918
299.88241
299.86047
299.8395
299.68088
299.67128
299.67008
299.66394
299.65017
299.62225
299.55708
299.42202
299.1133
299.80659
299.18454
300.30371
299.9161
299.89471
299.74208
299.82322
299.76526
299.86287
299.83431
299.81228
299.65117
299.65243
299.6499
299.64503
299.62501
299.63012
299.56341
299.46621
299.2474
299.53388
298.79717
300.90169
299.96072
300.02692
299.84163
299.82719
299.76889
299.80953
299.77354
299.75639
299.61525
299.63624
299.63863
299.62741
299.61171
299.64285
299.57925
299.49626
299.34341
299.52245
298.99201
300.79468
299.98123
299.94794
299.80555
299.78581
299.74799
299.74667
299.73349
299.7073
299.5786
299.62727
299.63031
299.62241
299.6071
299.61743
299.52363
299.53045
299.3604
299.56719
299.13124
300.54218
299.92203
299.85082
299.75861
299.71483
299.70517
299.70208
299.69668
299.67398
299.5559
299.59264
299.59309
299.59045
299.5493
299.52323
299.41461
299.67114
299.43182
299.55813
299.06373
300.48748
299.83812
299.84802
299.75113
299.67685
299.67374
299.67897
299.67383
299.6507
299.53756
299.58537
299.58562
299.57747
299.54118
299.50876
299.41141
299.70474
299.462
299.4758
298.97638
300.58503
299.84881
299.85264
299.74852
299.65347
299.65541
299.66737
299.6624
299.63679
299.52084
299.5794
299.58353
299.57242
299.54533
299.51516
299.42354
299.57027
299.331
299.5361
298.95453
300.60345
299.89905
299.78713
299.72061
299.63358
299.63876
299.65275
299.64776
299.62157
299.50573
299.58431
299.58371
299.57714
299.55817
299.54158
299.47723
299.51909
299.3325
299.69883
299.385
300.38335
299.84145
299.72138
299.67312
299.62248
299.62073
299.64197
299.63501
299.61338
299.49496
299.59276
299.59637
299.59236
299.57862
299.57044
299.53432
299.52281
299.46301
299.67209
299.53302
300.01473
299.75005
299.67361
299.64126
299.59892
299.60258
299.62336
299.61768
299.60637
299.48356
299.59176
299.59309
299.59199
299.58722
299.59369
299.59367
299.56068
299.57958
299.60437
299.6052
299.7173
299.67894
299.60838
299.61275
299.57548
299.59664
299.59776
299.59781
299.58379
299.46791
299.57452
299.5757
299.57266
299.56382
299.57846
299.56463
299.59072
299.58404
299.59329
299.56181
299.65794
299.63646
299.57955
299.59108
299.57125
299.59521
299.58088
299.5836
299.5666
299.45265
299.56586
299.56466
299.56061
299.55387
299.54442
299.51351
299.53066
299.4283
299.722
299.56218
299.65589
299.60908
299.57481
299.58305
299.57454
299.5894
299.57546
299.57649
299.55674
299.44311
299.56862
299.56906
299.56788
299.5682
299.55126
299.54801
299.52935
299.50133
299.65671
299.57344
299.61859
299.58818
299.5741
299.57738
299.57232
299.57774
299.57343
299.57176
299.55379
299.44013
299.55734
299.55893
299.55779
299.55615
299.55103
299.54095
299.52497
299.48423
299.65374
299.58616
299.58269
299.57358
299.56836
299.566
299.56277
299.56049
299.56857
299.56694
299.55442
299.43815
299.5524
299.55278
299.552
299.55055
299.54841
299.54448
299.54375
299.52795
299.60269
299.57009
299.56593
299.56042
299.5607
299.55645
299.5542
299.55166
299.56046
299.56025
299.5502
299.43261
299.54633
299.54703
299.54671
299.54353
299.55157
299.54686
299.55398
299.54749
299.55848
299.55331
299.5555
299.55126
299.55271
299.55129
299.55145
299.5507
299.55542
299.55266
299.54253
299.42556
299.54304
299.54333
299.54341
299.54393
299.54685
299.54487
299.54745
299.54588
299.54683
299.54658
299.54796
299.54719
299.54826
299.54762
299.54915
299.54837
299.55078
299.54732
299.53494
299.41928
299.5405
299.54079
299.54104
299.54328
299.53783
299.53949
299.53954
299.53954
299.54058
299.54112
299.54262
299.54242
299.54348
299.54387
299.54275
299.54147
299.54196
299.5431
299.53128
299.41749
299.80589
299.82335
299.83015
299.8329
299.83358
299.83275
299.83447
299.83263
299.82839
299.8284
299.83156
299.82929
299.82612
299.83291
299.84086
299.8467
299.89058
299.92932
299.99136
299.93859
299.82571
299.83578
299.83168
299.82917
299.82816
299.82756
299.83223
299.83016
299.82154
299.81709
299.83541
299.82932
299.82746
299.82995
299.85813
299.86462
299.84724
299.88189
299.86499
299.72554
299.83388
299.83273
299.83483
299.8281
299.83225
299.82453
299.82987
299.83118
299.82911
299.82813
299.85181
299.83026
299.82986
299.82659
299.86017
299.89685
299.80476
299.86689
299.63285
299.55111
299.81207
299.81395
299.81095
299.82367
299.8226
299.80177
299.81311
299.80056
299.97346
300.34746
299.59722
299.80313
299.72858
299.81943
299.78758
299.9109
299.55392
299.7194
299.52049
299.45331
299.74683
299.76837
299.77209
299.74285
299.72828
299.49489
299.73571
298.92002
300.24481
298.48736
302.00451
299.9852
300.13978
299.68051
299.6668
299.04774
300.13656
299.9474
299.45226
299.38097
299.92312
299.95237
299.88669
299.98014
299.92395
300.12814
300.36469
301.34491
299.12662
301.72423
297.47714
302.20168
297.49639
301.27666
295.86444
298.45662
298.98809
299.3473
299.30923
299.2784
299.79777
299.8085
299.84229
299.86066
299.83262
299.88385
300.08684
300.47546
299.89067
301.14869
298.46029
300.18164
300.25037
300.95583
297.30128
298.63858
298.98413
299.16535
299.30194
299.31351
299.74725
299.74862
299.74829
299.74895
299.72909
299.7124
299.76984
299.7512
299.85585
299.99225
299.06836
299.20161
301.013
300.83342
298.55942
299.14332
299.06001
299.23317
299.50394
299.47486
299.71287
299.70958
299.68123
299.64938
299.73669
299.65738
299.60582
299.41939
299.45729
298.55993
300.52344
299.06001
301.23418
300.78577
299.41074
299.51397
299.5112
299.53874
299.61984
299.56708
299.70874
299.7067
299.69487
299.6797
299.6845
299.62086
299.54248
299.32252
299.22718
298.40544
300.8858
298.43298
302.45261
300.94868
299.60654
299.64293
299.61174
299.62905
299.62682
299.58475
299.70038
299.69864
299.69451
299.68316
299.66281
299.61521
299.54617
299.36335
299.12973
297.92648
302.01352
300.00088
300.83014
300.33375
299.63393
299.66857
299.67053
299.68166
299.65751
299.60501
299.6797
299.67869
299.67113
299.6546
299.62548
299.56488
299.48287
299.29192
299.36314
298.10787
301.72965
300.259
300.14759
299.97048
299.72202
299.71758
299.74434
299.74516
299.74079
299.62019
299.66976
299.67323
299.66437
299.65167
299.63352
299.58484
299.53305
299.3759
299.38539
298.76635
300.91315
300.08119
299.95951
299.84161
299.77175
299.74173
299.77758
299.76037
299.76067
299.61837
299.66138
299.66349
299.65745
299.6488
299.63736
299.59889
299.54868
299.41671
299.38109
298.83024
300.83609
300.00629
299.93535
299.82153
299.76961
299.74288
299.76044
299.74422
299.73923
299.59724
299.64738
299.64998
299.64609
299.63859
299.63431
299.60056
299.53941
299.43589
299.49462
299.17324
300.56565
299.81771
299.98107
299.79722
299.7725
299.74123
299.73445
299.72005
299.70717
299.57882
299.64186
299.64408
299.64385
299.63859
299.62756
299.58132
299.52218
299.41039
299.58658
299.21338
300.3447
299.77243
299.9815
299.77158
299.78552
299.72895
299.73218
299.70793
299.68681
299.56217
299.61664
299.61734
299.61386
299.59632
299.59363
299.55127
299.58001
299.45626
299.55103
299.20985
300.27207
299.67618
300.00496
299.7737
299.77212
299.71123
299.7219
299.69309
299.67498
299.55352
299.60276
299.60418
299.59663
299.57954
299.57957
299.5435
299.61102
299.49138
299.49927
299.16295
300.23606
299.6372
300.03376
299.78597
299.7526
299.69454
299.70607
299.679
299.66459
299.53725
299.58811
299.59051
299.58314
299.55697
299.53383
299.48339
299.65776
299.54744
299.51751
299.30878
300.15129
299.63418
300.01988
299.76223
299.73503
299.67792
299.68509
299.66207
299.64975
299.52349
299.58793
299.5895
299.58247
299.55577
299.53348
299.47681
299.65717
299.55598
299.62389
299.52353
299.94115
299.66363
299.86424
299.69339
299.71053
299.6551
299.66713
299.64671
299.6377
299.51239
299.59918
299.60141
299.59937
299.58743
299.57667
299.56833
299.62022
299.60424
299.60621
299.58794
299.77205
299.65964
299.67752
299.63773
299.65587
299.62331
299.63184
299.62072
299.61505
299.49547
299.59341
299.59473
299.5941
299.58944
299.58151
299.57139
299.56741
299.53622
299.65038
299.57002
299.71371
299.6381
299.59555
299.60726
299.59389
299.59422
299.60207
299.59679
299.59076
299.47495
299.57829
299.57843
299.57508
299.56767
299.56551
299.54633
299.57111
299.5256
299.66906
299.59354
299.64652
299.61382
299.58604
299.59302
299.57929
299.58623
299.58507
299.58497
299.57479
299.45785
299.56679
299.56587
299.56297
299.55568
299.55808
299.54315
299.5635
299.53202
299.6518
299.5822
299.62727
299.59779
299.58418
299.58631
299.57799
299.58492
299.57572
299.57853
299.56453
299.44923
299.56096
299.56122
299.56296
299.55442
299.55693
299.54014
299.56597
299.53446
299.627
299.57019
299.61625
299.58606
299.5786
299.57525
299.5754
299.578
299.57625
299.5782
299.56075
299.44448
299.55732
299.55733
299.56002
299.55317
299.55416
299.53986
299.548
299.51411
299.63114
299.57879
299.59457
299.57583
299.57058
299.56591
299.56585
299.56471
299.57246
299.57191
299.55627
299.43939
299.55701
299.55684
299.55795
299.55736
299.55503
299.55374
299.5544
299.55061
299.58414
299.56674
299.57099
299.5644
299.56326
299.55917
299.55878
299.55794
299.56693
299.56402
299.55099
299.43615
299.55191
299.55256
299.55201
299.55129
299.55285
299.55174
299.55755
299.55675
299.55501
299.55461
299.55935
299.55667
299.55772
299.5561
299.55594
299.55579
299.55911
299.55736
299.54472
299.42957
299.54852
299.54836
299.54816
299.54723
299.54827
299.5477
299.55075
299.5498
299.54876
299.54914
299.5517
299.55041
299.55174
299.55177
299.55258
299.5525
299.55392
299.5524
299.54064
299.42387
299.54477
299.545
299.54427
299.54467
299.54456
299.54454
299.54437
299.54461
299.54445
299.54441
299.54617
299.54609
299.54765
299.54764
299.5478
299.54773
299.549
299.54913
299.53628
299.41996
299.81084
299.82615
299.83316
299.83395
299.83557
299.83495
299.84324
299.84068
299.8366
299.82778
299.84275
299.83103
299.83098
299.83847
299.8618
299.91438
300.05014
300.19333
300.12527
299.978
299.83287
299.83494
299.83589
299.83551
299.83468
299.83382
299.83595
299.83533
299.82188
299.81308
299.8644
299.84574
299.83844
299.83969
299.86411
299.90633
299.96181
300.04413
299.93818
299.80366
299.8335
299.83658
299.83197
299.83091
299.83528
299.82679
299.83406
299.82043
299.83246
299.60117
300.08631
299.92029
299.87507
299.82926
299.90239
300.09285
299.62071
299.83216
299.6703
299.53713
299.85098
299.84794
299.8493
299.83817
299.84573
299.84826
299.83231
299.76948
299.90298
299.79481
300.06148
300.34306
299.47672
299.63546
299.73104
299.62361
299.83176
299.85287
299.20335
299.36066
299.90415
299.93985
299.9835
300.06369
299.92621
300.24724
299.83726
300.7364
299.13343
301.07036
297.92437
299.37395
301.22764
301.33392
298.55324
300.16174
297.49285
299.04735
298.86069
299.05245
299.84115
299.86451
299.87093
299.87528
299.80936
299.85705
299.50811
299.0514
299.88104
297.33734
304.07142
303.64729
296.54345
300.33563
297.56392
299.14135
298.09568
298.89963
299.02227
299.09479
299.77213
299.7753
299.78949
299.79141
299.76952
299.7312
299.6262
299.59216
301.07403
302.04632
297.9885
301.57737
298.45681
300.43189
297.77769
299.04622
298.1759
298.88264
299.13081
299.15946
299.74102
299.7451
299.74111
299.72723
299.70423
299.65467
299.56515
299.42174
300.49792
300.13189
299.53811
300.71136
299.17442
300.22737
298.61426
299.31486
298.49358
299.0497
299.19133
299.25595
299.72031
299.71928
299.70958
299.69217
299.66384
299.6051
299.57829
299.36788
299.76641
299.38769
300.03923
300.12844
299.7429
299.97243
299.50881
299.63148
299.13278
299.40465
299.34318
299.35656
299.70584
299.705
299.69388
299.67065
299.62346
299.53637
299.46419
299.02242
299.43322
298.21332
301.51659
300.35004
300.08954
300.19095
299.43688
299.58771
299.40721
299.55215
299.53365
299.46691
299.68729
299.68964
299.67872
299.6569
299.63972
299.55228
299.48319
299.18542
299.19144
297.64201
302.01564
300.20046
300.38126
300.11508
299.6491
299.66035
299.63538
299.68341
299.65762
299.59982
299.65989
299.66405
299.64559
299.61424
299.60118
299.47209
299.23852
298.47195
300.3603
299.36641
300.53323
299.76337
300.41461
300.04563
299.83048
299.76323
299.78296
299.77717
299.77922
299.64074
299.66695
299.66829
299.6547
299.636
299.64637
299.57581
299.4905
299.2513
299.61437
298.89078
300.67747
299.89341
300.3045
299.95035
299.8443
299.77594
299.79405
299.77752
299.78397
299.62946
299.66347
299.6622
299.65583
299.64099
299.63798
299.5822
299.63559
299.50883
299.44293
299.0486
300.60491
299.93719
299.99276
299.83581
299.79322
299.75426
299.76439
299.74712
299.73715
299.60251
299.65441
299.65419
299.64731
299.63804
299.62534
299.58242
299.6541
299.54903
299.51975
299.31172
300.30703
299.87767
299.85844
299.76371
299.75152
299.72958
299.72632
299.71488
299.6943
299.57778
299.64515
299.64606
299.65329
299.64048
299.6328
299.605
299.61525
299.54728
299.6219
299.48566
300.06871
299.83208
299.77252
299.72976
299.72868
299.71081
299.70073
299.69397
299.67265
299.55781
299.6222
299.62621
299.62783
299.6126
299.63364
299.60729
299.62421
299.5818
299.62678
299.53791
299.91176
299.71282
299.77847
299.72908
299.70224
299.69139
299.68025
299.6763
299.65492
299.53551
299.60591
299.60738
299.59998
299.58275
299.59373
299.547
299.6406
299.55797
299.64356
299.54322
299.84173
299.67379
299.80812
299.73942
299.67023
299.66996
299.65202
299.65093
299.63164
299.51275
299.59921
299.59774
299.58705
299.56836
299.55949
299.50234
299.59146
299.40061
299.75777
299.47114
299.9137
299.70633
299.78498
299.72014
299.64674
299.65171
299.62598
299.62788
299.61925
299.50064
299.60321
299.60703
299.60314
299.59503
299.57871
299.55837
299.60452
299.52529
299.70303
299.54717
299.88755
299.73264
299.67102
299.66558
299.61327
299.61829
299.6132
299.61865
299.6077
299.48893
299.60405
299.60234
299.60068
299.59409
299.59214
299.57379
299.57955
299.53617
299.76149
299.79455
299.606
299.66917
299.5815
299.62329
299.57238
299.59111
299.59779
299.6039
299.58936
299.47628
299.59566
299.59309
299.59171
299.58378
299.58523
299.56259
299.56946
299.53969
299.73638
299.72025
299.52271
299.60733
299.56228
299.59909
299.56255
299.58171
299.58786
299.59326
299.5775
299.46727
299.57556
299.57522
299.57486
299.56725
299.58094
299.55971
299.566
299.52501
299.69204
299.59957
299.60044
299.59845
299.56718
299.58418
299.57829
299.58543
299.58657
299.58851
299.57422
299.46178
299.56547
299.5645
299.56211
299.55063
299.54985
299.51064
299.64818
299.6023
299.60452
299.57958
299.61821
299.59286
299.57667
299.57906
299.59031
299.58927
299.59123
299.58981
299.57409
299.45804
299.55491
299.55422
299.56843
299.55825
299.557
299.53193
299.61422
299.58133
299.59276
299.57252
299.60739
299.58517
299.57947
299.57565
299.58853
299.58526
299.59007
299.58767
299.57143
299.45157
299.5573
299.55591
299.56683
299.56214
299.56001
299.55044
299.5725
299.5439
299.6061
299.57454
299.58963
299.57739
299.57358
299.56992
299.57532
299.57281
299.57865
299.57646
299.56206
299.4448
299.55915
299.55961
299.56321
299.56095
299.56022
299.55812
299.5699
299.56069
299.57764
299.56633
299.57304
299.56816
299.56556
299.5636
299.56479
299.56523
299.56895
299.56765
299.55578
299.4405
299.55638
299.556
299.55637
299.55501
299.56003
299.55764
299.56283
299.56202
299.56019
299.55928