/*--------------------------------*- C++ -*----------------------------------*\
| =========                 |                                                 |
| \\      /  F ield         | OpenFOAM: The Open Source CFD Toolbox           |
|  \\    /   O peration     | Version:  1.7.x                                 |
|   \\  /    A nd           | Web:      www.OpenFOAM.com                      |
|    \\/     M anipulation  |                                                 |
\*---------------------------------------------------------------------------*/
FoamFile
{
    version     2.0;
    format      ascii;
    class       volScalarField;
    location    "30";
    object      p;
}
// * * * * * * * * * * * * * * * * * * * * * * * * * * * * * * * * * * * * * //

dimensions      [1 -1 -2 0 0 0 0];

internalField   nonuniform List<scalar> 
135588
(
126096.47
101843.75
59664.64
24791.488
-4548.5279
1865.9942
23278.543
44745.138
60194.461
71234.939
165643.88
124346.24
83516.877
49616.072
19633.446
20845.693
34797.278
52641.417
66050.387
74984.489
184205.43
134583.59
100657.17
68642.728
39125.112
36466.801
44862.848
59687.814
70021.281
77082.943
187879.25
135259.92
115120.83
81887.551
58717.103
49309.517
54080.917
66960.555
74949.113
81464.903
187908.08
134946.9
125551.48
96645.296
72932.796
61473.619
63358.8
73651.03
78150.202
83629.316
183110.76
132211.88
128200.08
101822.07
80037.878
71313.762
70152.13
77094.512
79429.161
82871.224
181840.02
131550.25
130238.6
107719.47
87616.021
76295.498
76135.327
79963.196
81201.271
83188.756
178646.74
131256.54
132478.82
109226.9
91829.708
82635.815
80414.539
82041.158
82083.102
82587.536
174779.41
128852.32
132028.63
109752.28
95118.462
85969.232
83053.645
83214.995
82921.933
82358.936
170168.88
126046.38
129863.64
109455.2
98602.956
89129.537
85796.112
84099.667
83749.989
82117.177
166081.87
126151.84
129538.81
110463.79
101433.16
91797.185
88222.432
84603.783
84332.167
82233.811
162884.57
127176.75
131129.49
113884.61
103487.34
94297.482
90454.866
85733.334
84071.755
82661.402
156883.46
125373.83
129359.14
114367.81
105233.04
96212.316
92043.813
87101.845
84763.201
82519.065
152344.67
123888.05
128151.13
114844.11
107264.79
98030.279
94000.815
87367.778
87174.458
82309.783
146465.27
120194.85
125834.45
115927.12
109008.95
99194.03
96089.878
88220.358
87811.133
83632.362
142853.12
118952.39
125008.71
115681.83
109818.79
100137.21
97636.906
88940.722
89496.162
85197.796
139817.73
117610.6
122715.19
115996.38
110665.24
101168.66
98599.785
90600.355
89540.208
88162.139
137654.01
114565.58
125171.15
116621.84
111286.21
101956.68
99695.717
92493.963
92000.493
88148.747
136128.61
117664.15
123218.34
116035.35
111186.55
102577.03
99900.019
93903.807
92163.55
90609.093
135486.81
118282.38
122929.44
115901.93
110809.07
102763.89
99856.702
95321.601
94611.793
91836.191
133344.04
120386.97
120569.67
115108.78
110513.8
103092.61
100522.94
96002.895
96214.647
91947.371
131508.48
120872.51
120005.36
114929.62
110214.66
103302.91
100840.07
96904.499
96097.797
94733.509
127163.2
120460.6
118812.03
114020.99
109813.47
103674.79
101313.85
97471.54
97969.925
94881.916
125262.61
119273.86
117944.56
113245.93
109566.62
103924.08
101746.37
98430.529
97429.75
96385.452
123082.88
119011.56
116598.62
112460.8
109368.05
104145.81
102200.23
99219.75
99308.333
96477.666
120855.48
117938.07
115801.47
112079.65
109421.47
104466.84
102551.52
99547.443
99831.222
97539.506
119912.29
116618.53
115306.65
111885.12
109472.51
104719.2
103036.17
99928.278
100033.61
98361.425
118759.89
116525.84
114979.65
111400.95
109476.31
105008.5
103482.69
100416.4
100212.49
99083.742
118786.45
115443.25
114471.02
110903.85
109430.53
105243.08
103774.34
101174.46
100345.82
99577.787
118133.23
114904.07
113954.5
110585.18
109376.24
105447.06
104090.63
101634.39
101467.47
99512.717
72695.532
53850.568
34789.085
11735.759
-13011.936
-18105.432
556.31895
21952.384
34989.5
46959.564
130795.76
85189.893
65733.324
39888.85
12673.449
2995.8073
15823.899
34443.472
47170.565
56890.408
150105.31
95379.293
87177.937
60974.369
32268.308
21962.3
30432.75
45209.686
56040.296
63339.904
161844.14
100784.57
104600.88
74313.303
46764.3
37878.873
43237.002
54578.307
63480.69
69294.872
165421.72
105755.51
114455.93
82445.267
58495.353
47499.681
53977.781
62228.515
68676.631
72628.162
165360.9
107141.69
118973.57
86670.515
64041.498
57957.328
63064.743
68308.414
72140.39
75201.565
166786.74
110383.53
124150.99
88755.725
73652.425
68175.524
69874.076
73338.538
75317.481
76787.529
164304.47
110657.26
126186.16
93379.31
81494.926
74859.734
75486.927
77347.619
78195.505
78311.705
160245.05
112485.97
127317.97
97942.29
88303.74
80441.386
80125.645
79848.572
80084.324
79596.15
156409.26
112077.77
126214.27
100526.87
93296.78
85085.941
83413.474
82196.547
81741.137
80567.742
151637.44
112060.29
124929.75
102578.32
96985.124
88985.499
86286.893
83406.864
83538.592
81279.562
148506.17
112751.98
124701.17
106056.51
100165.24
91787.363
89429.092
84424.212
84184.049
82904.425
145492.13
114383.31
125897.58
108530.89
102887.24
94436.849
91720.976
86285.803
85629.054
82122.849
142512.06
114434.24
123916.54
110591.67
105390.35
96555.118
93499.273
87172.338
87135.073
83389.859
139036.26
113095.31
124118.73
112161.89
107201.21
98040.653
95404.406
88398.43
88678.722
84084.437
136390.86
115057.59
121769.32
112324.93
108550.78
99349.06
97103.764
89397.194
89550.934
85872.75
134981.01
115846.74
121210.59
113474.24
109384.91
100471.68
98524.905
90682.569
91020.121
87296.623
133641.23
113325.82
121595.06
114485.2
110076.81
101404.25
99774.461
91663.693
90641.27
89518.645
132371.87
111623.63
122905.09
115043.41
110377.1
101947.21
100029.03
93686.037
94063.427
90068.655
129176.82
116926.58
121138.99
114926.46
110304.75
102378.25
100479.88
94740.855
94856.27
90948.989
129203.24
119058.85
119592.81
114612.66
110064.24
102713.34
100763.99
95853.022
94362.771
93491.957
127301.8
118197.91
120133.18
114311.04
109899.85
103012.79
100929.09
96791.648
96826.633
93997.828
125794.44
118325.65
118191.06
113356.04
109718.36
103356.87
101246.65
97414.211
96845.144
95950.076
124884.75
117646.03
116946.74
112740.85
109567.12
103689.53
101656.01
98337.462
98117.781
96039.189
122516.91
117621.18
116198.23
112035.73
109456
103851.21
102100.42
99101.46
98871.192
96759.976
120570.75
117203.94
115276.53
111705.8
109467.08
104115.58
102399
99545.438
99559.031
97662.663
118938.23
116256.96
115240.74
111546.14
109441.3
104411.88
102877.3
100220.84
99748.548
98523.142
118473.31
115625.5
114971.6
111172.61
109461.21
104707.28
103199.91
100714.97
99690.383
99550.526
118058.5
114861.04
114729.01
110620.4
109410.12
105021.71
103232.8
101540.09
100916.3
99543.628
117924.39
114191.77
114012.65
110386.13
109405.19
105307.59
103766.01
101735.09
101450.32
99686.589
26710.805
24206.971
11016.072
-10086.511
-35979.185
-27338.812
-5348.4017
13935.795
21633.832
27163.054
106132.37
66395.852
48302.565
23837.204
-3166.8614
-3023.1736
11255.737
28414.861
35708.849
42035.405
128119.39
73351.085
71360.822
46194.874
22297.253
18373.724
27068.497
41189.45
48105.368
54354.734
138959.5
75504.154
87040.093
62244.499
41355.994
35842.978
41530.156
52575.265
58103.776
63711.943
146867.97
84033.787
101927.83
73749.142
55933.786
50285.103
53652.16
60991.399
64617.892
69595.881
155518.11
86168.63
109404.05
81733.879
69080.675
62679.405
63950.207
68329.406
70385.985
74178.752
159762.43
93257.194
115596.88
89782.12
78902.997
71776.191
70837.922
74552.105
74803.268
75785.744
156505.74
94785.33
120515.03
93502.755
85243.68
78437.438
78232.577
77521.455
77992.499
78927.73
154987.19
96462.029
123366.76
97745.367
92400.238
83916.292
82380.74
81414.408
80467.464
79978.016
151175.97
97860.59
122939.54
100523.41
95972.32
88034.642
86146.326
83102.764
82700.376
80991.041
146208.98
99635.185
123133.56
102782.8
99001.645
90344.444
89394.208
84379.198
84859.831
81763.179
142420.11
103599.16
121534.66
106617.74
102018.57
92483.982
91619.183
85717.301
85348.114
83731.659
139471.16
106469.5
124100.67
109083.31
104558.09
94695.775
92885.829
87008.067
86945.177
84138.807
133392.31
114155.24
124408.27
110512.28
106115.31
96446.805
94373.615
87818.982
86990.212
86028.197
136512.41
107537.01
124504.41
112476.78
108096.83
98554.026
96228.383
89113.623
88699.917
84756.102
131142.78
113606.25
123339.85
112895.81
109324.96
99877.151
98069.914
89947.658
88158.993
87044.174
134110.68
113305.6
121309.4
112806.97
110380.71
100663.99
99225.438
91029.13
91335.045
87471.003
130376.33
116361.43
121216.78
112652.88
111312.95
101478.09
100230.02
92697.266
92515.659
88775.012
132458.97
119123.44
120061.86
113350.81
110933.57
101890.69
100467.24
94348.113
93713.461
90206.964
130635.4
119500.72
119229.67
113690.75
110550.51
102194.41
100818.09
95350.421
94714.917
91934.512
127429.56
118072.83
119611.72
113772.4
110066.81
102616.32
100938.45
96181.059
95974.065
93135.343
125887.06
117729.83
118982.94
113977.04
109913.13
102934.84
101207.58
97139.372
96817.481
94536.056
124841.45
117322.99
118051.21
113207.51
109773.96
103320.02
101452.19
97491.281
97457.06
95666.36
123378.02
116867.08
116875.64
112688.4
109594.56
103532.39
101662.82
98233.695
97271.995
96999.676
122658.94
116372.76
116086.6
111983.71
109487.39
103774.74
101899.62
99255.138
98324.87
97516.337
120811.72
115503
115814.64
111631.81
109468.26
104049.8
101989.12
100240.2
99050.203
97916.352
119197.37
114531.2
115820.47
111317.85
109513.52
104408.86
102805.01
100628.03
100001.68
98263.006
119363.37
115247.86
114659.42
110907.05
109547.24
104865.42
102914.48
101161.7
100626.02
98852.137
117276.76
114296.02
115170.16
110635.18
109372.26
105208.07
103155.88
101459.74
100650.88
99868.508
117000.14
114054.92
114475.38
110302.11
109351.16
105510.64
103818.27
101588.58
101142.92
100411.64
-27632.842
-29045.738
-28109.857
-43864.371
-62170.755
-48960.427
-26768.695
-7551.1874
4145.8206
6172.0481
84562.318
41197.541
28344.33
4569.6312
-20438.757
-19228.317
-5737.1827
11080.439
18379.292
22555.546
120634.85
57607.573
63167.354
36257.834
10627.648
5615.5475
13640.646
27684.552
33999.165
38250.486
119378.11
65239.206
85081
55076.581
32931.77
26228.408
30211.682
40987.571
46565.377
51174.546
135744.27
71785.722
98920.172
65904.259
49787.885
42413.6
43003.102
50454.054
55362.406
59817.553
135354.29
80584.046
105686.57
73720.492
62193.011
55102.921
54097.137
57886.195
61451.6
65444.013
153636.78
79895.923
113015.05
78699.858
72153.218
64438.982
62843.992
66183.564
67990.29
69266.753
141350.99
85678.271
117387.78
83588.081
79994.069
72133.223
71219.226
70953.758
71701.797
73403.185
158886.78
77934.182
122289.9
87486.875
86606.203
77860.934
76630.918
76370.203
75775.366
75106.843
154212.86
80270.263
121658.52
91827.015
91250.885
82945.496
81534.143
78598.963
78717.113
77447.675
146333.14
79481.793
126558.98
95671.658
95308.529
86230.082
85521.407
81480.887
80735.307
80149.853
139781.3
75128.348
122256.78
103463.3
99105.872
89014.329
88475.513
83634.916
83668.999
81542.516
120012.53
91129.566
124988.46
106276.17
100685.36
91243.157
90667.255
85442.517
85521.887
83130.81
135059.93
100677.76
123638.27
107205.43
101542.22
92749.573
92299.168
87131.557
86307.016
84903.861
129220.66
105542.01
123864.27
108544.01
103863
93725.114
94147.518
88519.071
88243.286
84690.407
134216.14
107793.06
122031.98
109505.26
106486.28
96325.599
95987.685
89111.625
89636.004
85750.196
133958.51
110528.94
119658.25
109663.28
108747.39
98549.775
97521.925
90485.474
91057.539
87115.718
135000.67
115448.02
117984.8
108687.74
109786.46
99606.956
98154.764
92560.62
92106.596
88808.99
129279.49
114636.32
119643.23
109018.19
110204.27
100519.05
98690.071
93553.651
93913.505
90811.88
131589.09
117043.35
116934.04
110241.7
109550.93
101193.82
99464.955
94769.621
95051.548
92218.121
129741.53
116821.2
116421.65
110289.15
109367.37
101797.82
100181.29
95955.611
95710.227
93488.427
127701.66
116390.24
115451.67
111313.82
109506.95
102354.72
100688.45
96588.779
96816.146
94586.854
125824.13
115947.2
115778.7
111635.59
109607.39
102878.73
101219.19
97381.225
97521.784
95780.798
124143.31
115857.74
115001.66
111672.53
109631.63
103294.38
101610.21
98125.762
98227.726
96675.35
121357.37
115757.5
114992.33
111363.59
109549.98
103598.95
101927.66
99030.883
98047.894
97588.122
120554.51
114379.26
114455.37
111520.54
109426.52
103958.1
102180.67
99624.549
98979.304
98298.403
117548.82
112323.81
115948.28
111355.42
109147.79
104322.32
102545.75
100326.82
99497.228
98688.298
118973.43
113327.01
114962.5
110317.54
109188.81
104761.86
102982.16
100755.48
100040.56
99462.076
118949.03
114299.97
113724.45
110095.02
109036.35
104957.39
102916.04
101535.52
100900.92
99668.658
117459.31
113861.72
113439.06
110107.81
109123.9
105221.7
103508.32
101456.94
100891.37
100387
-73085.152
-67599.353
-72518.421
-90136.956
-107823.36
-84655.155
-55393.578
-33439.389
-25525.174
-25605.329
66812.991
27546.392
3879.5348
-25791.709
-56066.416
-46919.026
-29173.544
-11149.32
-2957.4223
-2020.329
112696.24
54706.351
48523.336
15930.347
-15236.657
-16826.944
-5567.1727
9165.8655
16497.918
18849.41
121198.59
57221.186
72976.707
39321.855
15211.195
10576.36
15141.483
24649.862
32964.092
35683.963
132172.11
71498.116
88544.973
52290.513
37214.046
30691.242
31501.217
38073.441
43816.504
47457.068
162186.29
84335.308
94674.305
61416.642
53754.838
47120.207
44962.664
48744.86
52566.819
55890.382
151425.29
76098.57
106148.18
69346.87
65934.375
59280.768
55975.01
58197.441
59996.429
62296.058
159169.94
75950.681
108094.32
74805.235
75556.294
68468.24
64650.96
64847.379
65923.287
67586.221
141390.29
82395.285
115880.41
80586.893
83410.76
75399.236
71843.607
70500.462
70969.306
72474.771
156156.19
85085.817
115729.36
86346.923
89328.583
81394.193
77645.707
75722.659
75393.101
76197.028
135380.85
89745.955
119148.96
89917.012
94709.87
84908.983
82500.98
79426.027
79230.368
78480.992
150766.59
106538.31
110658.03
92298.212
97301.838
88478.996
86326.377
82971.19
81612.42
81274.82
143256.72
90923.165
118836.49
99183.879
100484.45
91529.325
88760.687
84799.981
84789.481
83602.969
132247.86
100240.44
120778.37
102091.56
102370.86
93362.922
91492.383
87544.44
86634.329
85087.064
136894.62
103147.58
120976.96
103510.45
104465.55
95801.509
93534.486
89026.531
89249.396
85856.29
127997.85
105960.31
121530
106044.44
106845.73
97791.846
95361.212
90132.705
89425.109
88799.518
124579.08
104548.76
121940.51
108219.84
108209.81
99184.389
97012.546
91839.149
92397.747
88904.863
130026.4
106304.92
120453.89
109705.63
108919.34
99963.884
98313.134
92337.395
92585.448
90502.04
130854.15
111268.91
120217.64
109111.52
109636.93
100654.03
98583.814
94317.199
92986.126
92644.188
126933.12
113093.41
119264.4
109251.52
109916.17
101404.54
99525.663
95519.284
94881.526
92772.455
127501.18
112711.1
117949.11
108506.78
110370.06
102081.01
100002.35
96455.153
95204.614
94265.498
124878.77
115177.24
116018.3
110025.9
110304.85
102672.73
100385.73
97309.043
96942.716
94552.87
124730.74
113489.46
116673.37
110473.86
109937.27
103230.01
100690.24
98122.173
96622.224
96223.085
123414.38
116366.46
114946.43
110668.33
109682.22
103589.57
101203.06
98728.041
97765.291
96980.21
121673.53
113502.02
115953.26
110557.86
109409.51
103880.7
101640.7
99411.55
99181.618
96869.957
120418.3
115145.93
114248.69
110610.52
109165.51
104113.06
102037.38
99731.014
99042.9
98421.372
120645.56
115229.21
114238.51
110492.81
108535.29
104342.03
102414.17
100522.08
99878.785
98778.66
118397.75
113661.23
114936.91
109880.08
108827.69
104541.12
102828.62
100941.13
100377.89
99251.092
117719.05
114146.39
113209.24
110579.79
108920.88
104903.66
103111.46
101346.98
100584.33
99711.465
115758.32
110790.49
114359.61
110468.83
109069.84
105224.54
103563.65
101629.38
101078.17
100191.9
-91318.411
-94225.2
-106532.74
-139771.89
-164826.63
-136564.42
-91664.659
-62965.802
-48809.166
-50970.897
78177.225
23463.555
-12330.89
-55754.088
-92223.321
-90143.681
-62637.465
-37996.412
-27849.497
-27897.072
147599.18
65203.833
47422.677
1204.8656
-37333.957
-49645.827
-32490.567
-15449.43
-4233.6597
-3550.1324
144383.71
72454.827
78960.351
32441.414
1772.8472
-12228.614
-4428.3075
7006.1152
16411.324
18536.332
164806.27
83365.754
96180.303
47503.991
28448.516
13542.245
17119.664
25204.946
31992.976
34105.571
172947.11
100816.98
101316.25
59828.854
49301.001
34071.181
34856.399
39657.207
44108.5
46189.559
195876.94
94540.333
104279.26
67409.992
63674.67
48493.066
47212.804
49671.184
52332.391
54875.71
155857.65
80088.691
113697.47
72762.749
74163.239
59402.913
56809.003
57679.565
59918.098
61486.765
159924.82
74319.761
115735.97
78200.955
81828.735
67931.177
65079.105
64750.538
65235.989
66367.805
146230.43
92998.217
115038.65
81413.808
87319.78
75544.774
72303.056
71184.362
70657.405
70851.282
147632.95
83409.04
117564.18
84676.102
91320.866
80809.378
78011.723
75906.882
75170.767
75025.902
138067.71
98317.534
115447.25
87835.295
95266.263
84727.142
82629.724
79524.952
79268.108
78012.946
141299.68
90725.972
118338.06
92601.05
97591.531
88529.315
86413.975
82740.781
82432.559
81684.767
139927.59
95438.464
118304.14
95013.192
99771.29
90905.396
89391.859
85202.837
85411.286
83289.872
126781.88
98410.315
119476.82
98909.72
101836.34
92903.884
91790.736
86749.309
87600.485
84804.074
138369.5
110485.52
112360.69
100037.57
103610.07
94789.259
93720.477
88073.499
88930.968
86540.666
129408.09
95218.986
117087.44
105169.78
105238.46
96378.674
95693.421
89087.897
89038.507
89002.882
123413.74
102467.84
118656.77
106648.97
106226.5
97729.857
96798.755
91803.096
91737.713
89090.788
130299.43
106598.09
119230.42
106017.92
107065.68
98997.504
98404.872
92376.937
92576.515
90727.584
131404.51
112337.57
117020.27
106327.18
107652.27
99962.433
98858.449
94287.379
93088.84
92983.869
122685.5
109096.95
117590.15
107716.01
108138.39
100857.67
99565.07
95624.587
95705.474
93541.357
125368
110349.44
116951.51
107943.42
108378.35
101698.73
99515.911
97483.98
95667.24
95279.07
123674.01
114883.04
114917.94
108254.37
108401.81
102587.51
100885.19
97952.768
97099.833
95507.033
122285.36
110532.52
115884.3
109359.52
108659.18
103093.92
100984.26
98944.383
97273.014
96779.128
120352.2
113554.53
113990.17
109572.46
108474.13
103486.11
101253.58
99496.729
98570.405
97096.099
119466.84
110325.89
114906.37
109722.86
108176.89
103798.06
101652.8
99695.979
99562.293
97654.261
118945.11
112186.05
115288.96
109081.22
108216.9
104024.51
102240.47
99767.977
99275.798
98920.756
118932.91
113254.79
113565.06
108788.95
108505.32
104214.7
102934.85
100640.98
100044.28
99168.932
116693.55
108563.84
114706.06
109544.63
108721.64
104539.71
103257.73
101112.47
101011.01
99414.327
114689.61
109727.25
115160.29
109007.14
108972.51
104887.23
103640.26
101487.48
101042.36
100297.21
-105546.48
-119650.97
-137904.24
-179333.72
-214919.78
-165099.75
-114332.57
-85749.441
-80627.433
-85097.884
51618.665
-7196.8332
-46221.815
-96377.463
-145013.23
-118565.37
-84391.59
-60054.592
-54793.663
-56804.061
125456.61
50789.093
25492.706
-30220.003
-79005.229
-75417.267
-51628.917
-32829.809
-26527.985
-26254.998
145302.15
69532.323
63188.313
9574.3751
-25393.469
-34885.026
-22940.716
-8993.9938
-3623.2203
-1853.1214
150856.18
69422.278
83636.016
32130.633
8772.773
-4571.5854
3029.5442
11757.324
17716.625
19781.215
155268.68
80441.468
96358.994
46965.933
36638.814
23734.64
24213.371
27466.615
33466.348
35674.358
170745.48
103379.68
101688.81
58625.322
53509.613
41753.4
39299.683
41059.267
45027.205
47489.054
181843.88
96671.865
98682.508
65218.887
66625.906
54938.81
51844.625
51077.749
53166.924
55416.662
141124.14
84156.071
107027.58
77244.259
76281.282
64443.462
61253.534
60058.972
60668.569
61901.955
156428.9
98195.908
103895.94
80128.192
83871.849
72120.941
68757.187
66326.907
66043.176
66866.365
130563.62
91969.885
110000.61
85749.823
90054.844
77874.682
74585.965
71804.233
70910.848
71198.998
141545.81
103844
106353.95
89025.261
92722.194
81963.575
79557.226
76022.056
75169.874
75208.326
124463.39
93316.674
115170.8
95273.274
95345.481
85416.888
83741.588
80363.979
79716.183
79293.814
139488.47
112379.64
110289.2
96038.888
97149.335
88383.51
87282.668
83701.337
83348.651
82736.261
129408.61
108380.16
110939.38
96652.662
99844.912
90639.991
89991.138
86193.679
86056.214
84924.35
138582.98
112268.92
110200.61
98332.603
101240.33
92870.769
92429.776
88154.983
88316.092
86615.162
121436.85
103493.21
114552.21
101678.38
103114.28
94702.463
94909.266
88821.152
89622.946
88681.75
125175.35
112005.5
112060.52
103344.33
103944.64
96073.753
96019.889
91438.848
90706.685
90273.896
123690.16
99494.759
115513.9
104234.35
104940.19
97764.117
97368.182
93040.27
93034.776
90664.127
127976.47
116095.54
114684.89
104604.06
105854.82
99105.378
98090.506
94348.098
93431.944
92757.72
123767.27
107716.42
116780.44
104807.13
106835.74
100258.57
99033.657
95774.094
96101.416
93425.559
123196.81
114762.85
113109.9
105477.07
107492.17
101136.32
99901.465
96856.095
96090.38
94792.719
121636.03
106422.83
115149.49
107306.03
108224.73
101907.72
99874.696
98137.376
97007.079
96418.239
121510.23
114597.36
113859.62
107950.09
108430.23
102567.07
100939.14
98448.14
98349.763
96738.574
118011.76
108608.56
114226.25
108544.18
108741.03
103101.32
101115.35
99356.236
98320.842
97937.704
116712.7
109875.74
114761.85
109088.85
108423.57
103464.89
101899.14
99729.882
99721.805
98036.356
120132.89
113234.1
112889.67
108016.61
108525.78
103910.99
102277.7
100432.77
99959.337
99203.44
116910.55
111425.04
113504.18
108563.18
108644.76
104113.91
102866.56
100971.4
100695.83
99410.83
116846.37
110627.42
113195.62
108693.96
108551.06
104411.98
102951.51
101446.83
100707.1
100438.64
116002.29
111695.05
112125.3
108635.2
108769.87
104816.71
103447.96
101985.5
101285.19
100827.33
-117984.43
-123240.26
-129233.18
-163543.85
-166582.55
-146649.93
-111672.11
-94677.851
-83332.316
-84255.721
53356.631
2141.1813
-16250.32
-61661.174
-108489.28
-120680.01
-90470.48
-75521.064
-64696.397
-65214.893
122321.42
64328.165
53983.818
-9645.7655
-57961.003
-75007.634
-59763.552
-46128.918
-37910.5
-36875.464
162368.14
94959.483
94913.105
27246.968
-17991.281
-36828.104
-30483.848
-21279.468
-13276.975
-12654.44
178757.12
118444.02
122965.77
45689.882
17364.362
-1568.8391
-6492.4207
1090.9129
8141.3335
9638.9194
185991.87
129281.32
130045.24
60203.75
39576.937
20536.29
14067.131
18995.58
23085.003
24998.887
196342.54
129380.84
124526.08
63048.713
58491.963
37763.579
31441.462
32236.868
34174.702
36281.11
181451.2
124119.29
120181.6
73856.84
70004.008
48343.025
44609.127
42491.353
44532.789
46085.18
179285.73
108869.9
112642.96
78463.845
79056.337
58855.419
55231.397
52715.544
52948.617
53812.814
115981.12
48398.917
133097.63
84158.524
83097.628
67077.068
63303.699
60473.006
60103.918
60498.023
167849.14
114291.84
117356.82
80770.094
86844.068
73070.811
69792.53
66426.532
66150.138
66329.778
116670.27
57307.221
135495.24
88244.964
90860.943
77930.772
75033.269
71290.369
71103.044
71085.426
165367.98
112964.85
125439.68
85620.593
93829.478
82103.344
79721.671
75614.807
75311.836
75017.819
148958.39
117071.77
118286.06
87557.19
96196.618
85231.898
83785.431
79657.582
79522.063
78722.425
118643.9
67667.808
122429.6
91741.844
99165.117
88329.239
87168.809
83117.233
83159.857
82257.08
139012
114316.16
117815.99
93870.454
99641.23
90544.178
89957.843
86146.611
86239.705
85082.222
131955.89
91136.066
116300.65
95390.045
101656.72
92796.627
91981.025
88285.946
88533.306
87649.365
128585.92
91660.081
118347.1
97614.412
103052.94
94614.552
93235.504
91084.254
89887.762
89798.393
133118.96
112816.43
114288.41
98195.039
104303.18
96245.472
95104.821
92793.044
92577.612
90992.482
127191.26
95997.508
116450.21
101564.3
105469.29
97836.011
96164.101
94499.917
93482.346
92788.089
130000.66
114392.92
114330.51
102789.39
105967.07
99217.505
97613.826
95685.566
95685.421
93594.148
124368.99
101657.88
116686.39
104969.16
106391.44
100114.12
98809.756
96515.741
96410.483
95504.401
125632.28
114408.61
114074
105434.35
106984.29
100951.78
99598.815
97194.469
97452.145
96652.201
121290.64
104723.99
114925.07
107202.5
107624.39
101654.89
100578.67
98123.345
97607.305
97509.03
116074.32
106687.31
116133.88
107210.41
108141.96
102394.22
100664.35
99565.907
99097.822
97764.715
120837.56
111773.22
112519.52
107233.49
108198.66
102896.17
101378.83
100084.48
98937.678
98716.224
115651.6
107871.77
113921.85
107520.57
108600.31
103157.69
101905.18
100617.65
99685.935
99391.316
118275.6
110967.6
111627.74
108035.71
108268
103351.77
102259.09
101323.64
101066.45
99598.967
115280.01
110449.82
111333.89
108794.81
108062.5
103726.85
102659.78
101440.77
100892.2
100466.75
113888.69
103254.53
113371.51
108982.97
108213.52
104300.01
102481.13
102028.32
101476.1
100940.53
-154989.7
-154185.19
-182687.96
-205270.66
-200343
-158306.54
-93293.475
-70907.289
-61008.213
-61860.548
14062.194
-35272.375
-77220.395
-120518.88
-152819.51
-115155.11
-75124.056
-55294.222
-47886.73
-48994.706
65524.88
11572.242
-2685.1
-54591.526
-88748.074
-80416.786
-52445.05
-35424.558
-28768.946
-28310.839
96770.145
42404.212
43041.655
-13024.165
-39406.3
-40016.667
-27313.718
-15814.353
-10486.153
-9178.8089
130508.15
61844.332
72638.457
12563.697
-1059.2201
-6406.8807
-1489.5495
4157.8424
9057.9382
10457.461
145488.16
78876.535
86120.659
31879.574
26579.242
17549.723
17881.77
20467.297
24480.151
25840.531
167605.13
81982.958
90566.045
45167.236
47279.251
35885.251
34549.034
34565.634
37032.844
38866.204
154333.97
88823.42
94293.356
57679.925
61710.131
49103.615
47415.897
45990.187
47537.297
48800.998
157609.37
90249.468
98782.89
66408.309
72049.897
59097.066
56951.974
55171.248
55663.566
56525.725
111065.23
96832.883
99737.817
72214.891
78896.327
66663.649
64431.841
62359.659
62287.073
62271.609
144192.45
96699.663
101240.33
76246.378
84392.31
72743.016
70608.539
67909.341
67707.148
68083.411
147395.69
92667.99
103215.55
77341.656
89437.978
77326.24
75840.362
72886.973
72183.732
72663.966
103187.73
58305.852
115386.87
83063.112
93582.661
81643.526
80352.771
77233.716
77244.632
76922.469
138351.17
99573.564
109798.06
84052.626
96860.381
84656.421
83899.864
80723.656
80935.592
80601.328
81530.754
46952.913
124310.84
92189.663
99625.972
87810.669
86811.516
83943.319
83450.011
83562.275
112821.04
107382.76
114643.04
93080.013
100079.95
90032.538
89323.557
86806.327
86675.361
85937.785
120892.2
81050.898
117633.76
94013.868
101295.61
92114.782
91653.195
88938.572
89329.779
88367.981
101243.66
74597.446
124183.99
100165.3
102924.74
93632.949
93216.669
91126.53
90895.174
90199.625
122367.55
108580.42
116526.01
100699.9
103319.41
95278.621
94150.394
93052.882
91648.68
91646.419
121160.64
92515.188
118744.89
101007.31
104938.43
97275.361
95601.169
94508.854
93783.742
93052.088
124012.35
112992.22
113804.43
101799.49
105625.95
98385.164
96926.952
95765.46
95632.449
94423.709
117405.99
97681.021
114140.16
103709.55
106246.88
99449.623
97644.239
96972.466
96192.693
96221.649
117508.12
100447.28
115776.57
103914.82
106814.12
100630.25
98853.749
97886.735
97331.289
97342.979
119094.01
111189.3
111534.94
103321.85
107794.54
101617.93
100070.72
98645.29
98575.649
97845.787
116462.98
103236.67
113766.99
106274.93
108370.12
102219.56
100775.35
99358.188
98866.433
98596.875
114467.88
107019.12
115101.13
107200.88
108459.64
102686.54
101131.02
100242.48
99667.847
99208.42
116217.59
111327.58
112390.33
107857.7
108141.38
103189.35
101744.51
100534.45
100476.58
99678.915
116331.68
107113.57
113713.48
108851.56
108051.55
103351.26
102308.65
100948.97
100503
100245.42
115852.48
107970.19
113139.14
108802.66
108104.36
103690.77
102572.61
101549.05
101223.16
100636.53
115638.53
111558.36
111940.69
108264.72
107966.42
104164.21
103098.35
101930.8
101410.2
100987.66
-136136.4
-133912.16
-144364.3
-163659.93
-156591.89
-121952.32
-71403.49
-42899.351
-35454.894
-38055.373
38525.792
-9066.777
-42038.241
-79285.763
-102017.61
-84772.77
-55782.251
-29630.695
-23439.799
-24580.457
102214.38
35441.578
20450.949
-21963.457
-49307.622
-47249.443
-31768.278
-14753.253
-4544.1633
-3040.4317
125097.74
49199.268
56813.755
11310.302
-10513.016
-14993.834
-6028.109
3628.0428
8956.7685
11221.718
137714.51
64040.217
76402.582
31299.844
18645.102
10789.074
13609.223
18825.857
24410.257
25878.002
157627.52
61948.3
91979.84
46394.161
39985.001
30027.946
29641.444
33049.033
36775.037
38076.37
150805.55
81344.01
92319.9
55711.425
55216.204
44489.124
42843.06
44308.71
46124.627
46956.241
150251.79
52533.694
106918.88
65319.024
66455.472
55075.428
52892.129
53025.734
53557.886
53768.814
129431.49
74900.133
105728.78
72810.262
74823.307
62910.649
60444.757
59883.647
60073.253
60647.657
140248.32
62262.185
110609.57
77705.988
80569.948
68829.398
66736.251
65481.26
65794.972
66133.857
130941.59
81594.938
109296.95
78179.571
84699.367
73672.512
71879.198
70494.659
70803.009
70553.89
136497.93
70322.266
112335.45
82560.498
88017.025
77712.52
76391.605
74822.985
74841.851
74507.182
133763.11
103808.47
115907.05
80037.838
92606.243
81417.273
80299.702
78584.632
78242.65
78279.835
127790.24
72880.062
108355.58
86689.104
95386.598
84540.282
83531.85
81725.096
81956.782
81360.855
124859.47
100662.38
106642.78
86650.287
97895.534
87293.127
86445.701
84389.337
84359.615
84163.954
124515.37
81265.105
111061.77
91799.4
99470.179
89653.866
88814.401
86904.001
86805.532
86734.541
125220.04
105600.44
110695.91
92872.468
100445.96
91569.546
91071.674
89374.492
88962.707
88984.226
114906.48
84345.878
114081.24
97861.767
101386.88
92963.009
92720.462
91731.912
90962.133
90636.688
117775.84
91894.951
118514.54
100976.44
102349.24
94739.263
94150.997
93058.109
92754.473
92077.774
121271.53
109505.71
114369
99979.944
103533.21
96850.082
95799.595
94447.404
93683.784
93720.152
119684.81
101104.01
114540.48
102052.79
104463.22
98427.692
96896.169
95983.505
95215.213
95120.366
112700.61
102714.67
115337.62
102094.38
105491.5
99615.124
98029.631
96977.504
96505.284
96253.773
119811.34
108740.91
111392.3
102142.77
106151.04
100687.96
99258.745