/*--------------------------------*- C++ -*----------------------------------*\
| =========                 |                                                 |
| \\      /  F ield         | OpenFOAM: The Open Source CFD Toolbox           |
|  \\    /   O peration     | Version:  1.7.x                                 |
|   \\  /    A nd           | Web:      www.OpenFOAM.com                      |
|    \\/     M anipulation  |                                                 |
\*---------------------------------------------------------------------------*/
FoamFile
{
    version     2.0;
    format      ascii;
    class       volScalarField;
    location    "30";
    object      rho;
}
// * * * * * * * * * * * * * * * * * * * * * * * * * * * * * * * * * * * * * //

dimensions      [1 -3 0 0 0 0 0];

internalField   nonuniform List<scalar> 
135588
(
1.1824741
1.1822101
1.1796342
1.1779665
1.1764563
1.1757555
1.175755
1.1764541
1.17719
1.1771891
1.1824813
1.1824844
1.1805366
1.1787789
1.1771912
1.1764543
1.1764533
1.177189
1.1771894
1.1776612
1.1824846
1.182485
1.1815431
1.1794755
1.177507
1.1771884
1.1771878
1.1771881
1.1773692
1.1780449
1.1824748
1.1824747
1.1824749
1.1796249
1.1779572
1.1771872
1.1771874
1.177547
1.1779585
1.1784544
1.1824602
1.1824601
1.1824599
1.1814603
1.1787536
1.1779394
1.1779383
1.1779385
1.1779378
1.1785569
1.1824419
1.1824421
1.1824421
1.182184
1.1792876
1.1787315
1.1779165
1.1779174
1.1779164
1.1779576
1.1824223
1.182422
1.1824213
1.1824224
1.179569
1.1787127
1.1786509
1.1781853
1.1778962
1.1775303
1.1824016
1.1824017
1.1824017
1.182402
1.1804532
1.1786936
1.1786923
1.1783012
1.1778753
1.177102
1.1823836
1.1823836
1.1823839
1.1823828
1.1804336
1.1793846
1.1786722
1.1780931
1.1778582
1.1770845
1.182366
1.182366
1.1823663
1.1823664
1.1811245
1.1795127
1.1786546
1.1778785
1.1778416
1.1768583
1.1823487
1.1823486
1.1823486
1.182348
1.1818655
1.1794977
1.1786393
1.1779591
1.177824
1.1757113
1.1823323
1.1823318
1.1823316
1.1823324
1.1823332
1.180176
1.1790825
1.1778698
1.1777518
1.1767094
1.1823176
1.1823177
1.182318
1.182318
1.1823177
1.180369
1.1794355
1.1778459
1.1775003
1.1765279
1.1823049
1.1823049
1.1823054
1.1823037
1.1823021
1.1803488
1.1794453
1.1777689
1.1775719
1.1756839
1.1822726
1.1822716
1.1822711
1.1822708
1.1822675
1.180502
1.179409
1.1776884
1.1775045
1.1755106
1.1822419
1.1822413
1.1822387
1.1822374
1.1822355
1.1809181
1.1796012
1.1775185
1.1774279
1.1751254
1.1822144
1.1822134
1.1822108
1.1822091
1.1822072
1.181568
1.1799856
1.1773943
1.1769011
1.1767396
1.1821883
1.1821874
1.1821859
1.1821843
1.1821822
1.1820022
1.1802293
1.1777343
1.1769249
1.1767318
1.1821632
1.1821617
1.1821604
1.1821599
1.1821591
1.1821574
1.1802663
1.1780051
1.1770662
1.1763625
1.1821389
1.1821377
1.1821366
1.1821356
1.1821347
1.1821325
1.1802473
1.178221
1.177515
1.1759536
1.1821174
1.1821163
1.1821155
1.182115
1.1821138
1.1821121
1.1804599
1.1782873
1.1780857
1.1754524
1.1820988
1.1820979
1.1820969
1.1820954
1.1820946
1.1820932
1.1808124
1.178396
1.1778332
1.1763573
1.1820809
1.1820804
1.1820801
1.1820762
1.1820716
1.1820657
1.1812749
1.1784845
1.1783314
1.1755127
1.1820467
1.1820436
1.1820415
1.1820382
1.1820333
1.1820293
1.1816765
1.1786054
1.1778857
1.1762802
1.1820111
1.1820077
1.1820052
1.1820016
1.1819957
1.1819868
1.181946
1.1788713
1.1786359
1.1753641
1.1819743
1.1819709
1.1819687
1.1819654
1.1819603
1.1819511
1.1819455
1.1789299
1.1789594
1.1750822
1.1819397
1.1819378
1.181935
1.1819315
1.1819255
1.1819197
1.1819114
1.1789019
1.1791437
1.1753587
1.1819059
1.1819034
1.1819019
1.1818986
1.181894
1.1818887
1.181882
1.1791591
1.1791406
1.1753239
1.1818753
1.181874
1.1818727
1.1818698
1.1818676
1.1818552
1.1818348
1.1801703
1.1788271
1.1751827
1.1818443
1.1818389
1.1818311
1.1818221
1.1818096
1.1818006
1.1817798
1.1806874
1.1796445
1.173318
1.1805219
1.1794427
1.1787751
1.1771928
1.1764569
1.1757564
1.1757558
1.1757565
1.1764556
1.1764548
1.1824827
1.1805344
1.1796347
1.1779652
1.1771916
1.1763326
1.1757558
1.1764543
1.1767813
1.1771894
1.1824852
1.1814851
1.180536
1.1787778
1.17719
1.1766828
1.1764525
1.176676
1.1771879
1.1771874
1.1824746
1.1816045
1.1824752
1.1796256
1.1779108
1.1771867
1.1771865
1.1771839
1.1771836
1.1771833
1.1824589
1.1824587
1.1824589
1.1796072
1.1779824
1.1771655
1.1771651
1.1771637
1.1771624
1.1771623
1.1824415
1.1824414
1.1824418
1.1803718
1.1787315
1.1779171
1.1773794
1.177142
1.1771408
1.1771408
1.182422
1.1824221
1.1824219
1.1804718
1.1787109
1.1781703
1.1778958
1.1775131
1.17712
1.1771203
1.1824017
1.1824019
1.1824017
1.1804517
1.1794907
1.1786921
1.1780471
1.1777606
1.1771048
1.177101
1.1823836
1.1823834
1.1823832
1.1813829
1.179531
1.1786729
1.1786722
1.1778464
1.1775009
1.1765574
1.1823662
1.1823659
1.1823659
1.1813658
1.1804154
1.1787523
1.1786547
1.1778401
1.1774312
1.1770297
1.1823488
1.1823487
1.1823488
1.1823484
1.1803985
1.1794971
1.1786392
1.1778246
1.1776843
1.1765278
1.1823324
1.1823319
1.182332
1.1823324
1.1813325
1.1794807
1.1786459
1.1778089
1.1776676
1.1763473
1.1823177
1.1823176
1.1823179
1.1823178
1.182318
1.1799211
1.179327
1.1777731
1.1775846
1.1758161
1.182305
1.1823048
1.1823052
1.182303
1.1823012
1.1803468
1.1794431
1.1776674
1.1773561
1.1759565
1.1822728
1.1822718
1.1822712
1.18227
1.1822657
1.1803126
1.1794075
1.1775282
1.1774356
1.1752373
1.1822418
1.1822405
1.1822387
1.1822373
1.1822356
1.1804978
1.1795006
1.1773952
1.1773759
1.1751513
1.1822131
1.1822123
1.1822107
1.1822092
1.182208
1.1809846
1.1799179
1.1773833
1.1773506
1.175425
1.1821874
1.1821864
1.1821853
1.182184
1.1821819
1.1816803
1.1802296
1.1774729
1.1769283
1.1761099
1.1821616
1.1821606
1.1821599
1.1821591
1.1821578
1.1819725
1.1803252
1.1777083
1.1774527
1.1753625
1.1821379
1.1821373
1.1821361
1.1821354
1.1821343
1.1821325
1.1805064
1.1777702
1.1775462
1.1754094
1.1821173
1.1821163
1.1821154
1.1821145
1.1821138
1.1821121
1.1807146
1.1781036
1.1771524
1.1766856
1.1820983
1.1820978
1.1820971
1.1820957
1.1820951
1.1820936
1.180908
1.1782132
1.178062
1.1755715
1.1820808
1.1820803
1.1820797
1.1820766
1.1820704
1.1820649
1.1812142
1.1782533
1.1778663
1.1754779
1.1820451
1.182043
1.1820406
1.1820377
1.1820334
1.1820273
1.181574
1.1784801
1.1782022
1.1754435
1.1820092
1.1820066
1.1820041
1.1820011
1.1819963
1.1819874
1.181888
1.1786675
1.1784557
1.1752159
1.1819726
1.1819704
1.181968
1.1819652
1.1819602
1.1819519
1.1819468
1.1789161
1.1787284
1.1752125
1.1819393
1.1819367
1.181935
1.1819315
1.1819255
1.1819199
1.1819115
1.1791599
1.1785755
1.1753109
1.1819042
1.1819028
1.1819017
1.1818988
1.1818937
1.1818883
1.1818825
1.1796031
1.1777335
1.1763393
1.1818744
1.1818736
1.181872
1.1818701
1.1818667
1.1818541
1.181836
1.1810225
1.1793045
1.1751063
1.181843
1.1818377
1.181831
1.1818212
1.1818105
1.1817991
1.1817727
1.1809088
1.1795967
1.172803
1.1787637
1.177949
1.1779625
1.1771961
1.1757615
1.1753328
1.1752656
1.1757588
1.175759
1.1764565
1.1824852
1.1796336
1.1787792
1.1771931
1.1764581
1.1757581
1.1757574
1.1763506
1.1764554
1.1765307
1.1824863
1.1796336
1.1796348
1.1780271
1.1771906
1.1764544
1.1764535
1.1764534
1.1764534
1.1771881
1.1824748
1.1796225
1.1805257
1.1787682
1.1773657
1.177183
1.1771828
1.1771818
1.1771822
1.1771816
1.1824586
1.1798914
1.1822537
1.1792936
1.1779367
1.1771639
1.1771643
1.1771616
1.1771598
1.1771598
1.1824415
1.1804913
1.1824416
1.1795891
1.1787323
1.1779182
1.1779166
1.1771398
1.177138
1.1771379
1.182421
1.180471
1.1824213
1.1804701
1.1790661
1.1787087
1.1778931
1.1778191
1.1771202
1.17712
1.1824013
1.1804512
1.1824007
1.1804507
1.1795483
1.1786905
1.1785425
1.1778044
1.1773343
1.1769015
1.1823832
1.181383
1.1823829
1.1812106
1.1804335
1.1790679
1.1786726
1.1778573
1.1772604
1.1770839
1.1823657
1.1813655
1.1823661
1.1813656
1.1804153
1.1795132
1.1786547
1.1778394
1.1778401
1.1765832
1.1823489
1.1813486
1.1823482
1.1823478
1.1811895
1.1794966
1.1786795
1.1778245
1.1778241
1.176775
1.1823319
1.1823317
1.1823321
1.182332
1.1821888
1.17948
1.1790523
1.1778085
1.1777934
1.1770342
1.1823177
1.1823177
1.1823179
1.1823182
1.1823181
1.1802127
1.1794656
1.1777141
1.1777084
1.1768283
1.1823051
1.1823046
1.1823028
1.1823011
1.1822985
1.1803448
1.17944
1.1774937
1.1771721
1.1769876
1.1822719
1.1822702
1.1822697
1.1822672
1.1822635
1.1803107
1.1794951
1.1774047
1.1776315
1.1759719
1.1822415
1.1822402
1.1822393
1.1822374
1.182235
1.180763
1.1800129
1.177331
1.1776185
1.1756507
1.1822123
1.1822112
1.1822102
1.1822093
1.1822093
1.1812036
1.1802529
1.1773623
1.1773758
1.1755245
1.1821851
1.1821844
1.1821836
1.1821821
1.1821804
1.1817225
1.180508
1.177572
1.1772437
1.1754189
1.1821606
1.1821593
1.1821584
1.1821574
1.1821553
1.1819384
1.1805347
1.1777445
1.1775053
1.1754624
1.1821369
1.1821357
1.182135
1.1821345
1.1821342
1.1820919
1.180827
1.1779693
1.1775907
1.1757244
1.182117
1.182116
1.1821153
1.182114
1.1821135
1.182112
1.1809218
1.1780531
1.1777579
1.1757995
1.1820983
1.1820975
1.1820964
1.1820953
1.1820945
1.1820938
1.1812072
1.178165
1.1778443
1.1758305
1.1820803
1.1820799
1.1820794
1.1820756
1.1820691
1.1820635
1.1814574
1.1781925
1.1776055
1.1760521
1.182044
1.1820421
1.1820405
1.1820368
1.1820318
1.182025
1.1816289
1.1784505
1.1774211
1.1768316
1.1820077
1.1820052
1.1820032
1.1820002
1.1819949
1.1819875
1.1817694
1.1788084
1.1776361
1.1767961
1.1819712
1.1819689
1.1819674
1.1819637
1.1819594
1.1819518
1.1817875
1.1794238
1.1780842
1.1766609
1.1819377
1.1819357
1.1819337
1.1819306
1.1819247
1.1819175
1.1819113
1.1797916
1.1787433
1.1761169
1.1819043
1.1819032
1.1819013
1.181899
1.1818941
1.1818877
1.1818833
1.1805938
1.1794832
1.1762592
1.181874
1.1818727
1.1818721
1.1818704
1.1818673
1.1818539
1.1818369
1.1810088
1.1792257
1.1750126
1.1818411
1.1818348
1.1818292
1.1818211
1.1818109
1.1817977
1.1817814
1.1807343
1.1791417
1.1746138
1.1771827
1.1771849
1.1771986
1.1764676
1.1757672
1.1751009
1.1750996
1.1750993
1.1757624
1.1757615
1.1804337
1.1787217
1.177969
1.1771968
1.1764614
1.1757609
1.1757601
1.1757597
1.1757592
1.1757586
1.1824886
1.178779
1.1787798
1.1779663
1.1771924
1.1764558
1.1757567
1.1759713
1.176011
1.1763098
1.1824764
1.1787671
1.1796253
1.1787693
1.1771821
1.1771826
1.1764467
1.1764451
1.1764448
1.1764441
1.1824588
1.1787489
1.1814593
1.1787493
1.1779363
1.1771642
1.1771631
1.1771604
1.1769129
1.1766668
1.1824409
1.1787308
1.1824405
1.1787306
1.1783358
1.1775531
1.1771414
1.177139
1.1771378
1.1771374
1.1824195
1.1795675
1.1824203
1.1795677
1.1787085
1.1778927
1.1772344
1.1771188
1.1771192
1.1770776
1.1823998
1.1795471
1.1823993
1.1795468
1.1786893
1.1786892
1.1778743
1.1771005
1.177101
1.1771007
1.1823827
1.1795297
1.1823821
1.1798211
1.1795299
1.1786728
1.1778579
1.1770831
1.1770827
1.1770823
1.1823652
1.1795128
1.1823653
1.1804147
1.1799781
1.1786551
1.1782793
1.1771719
1.1771154
1.1760363
1.1823473
1.1794944
1.182347
1.1803969
1.1803969
1.1789923
1.1786378
1.1772963
1.1770488
1.1770483
1.1823314
1.1795193
1.1823314
1.1823317
1.1810984
1.1794787
1.1786211
1.177378
1.1771973
1.176784
1.1823174
1.1803671
1.1823171
1.1823173
1.1814014
1.1794642
1.1786065
1.1772546
1.1771148
1.1763187
1.1823025
1.1813756
1.1823003
1.1822967
1.1818755
1.1794379
1.178874
1.1769873
1.176986
1.1766094
1.1822688
1.182268
1.1822675
1.1822654
1.1822611
1.1794611
1.1793042
1.1771683
1.1770964
1.175331
1.1822387
1.1822375
1.1822368
1.1822365
1.1822333
1.1800009
1.1793757
1.1770933
1.1771347
1.1753344
1.1822103
1.1822088
1.1822078
1.182207
1.1822068
1.1802527
1.1797011
1.1771809
1.1772235
1.1753148
1.1821833
1.1821823
1.1821809
1.1821799
1.182178
1.1804111
1.1798506
1.1774196
1.1772867
1.1752788
1.1821577
1.1821569
1.1821563
1.1821549
1.1821541
1.1808259
1.1799219
1.1776765
1.1772061
1.1754125
1.1821352
1.1821345
1.182134
1.1821331
1.182132
1.1814802
1.1801209
1.1778303
1.1774363
1.1756408
1.1821156
1.1821151
1.1821143
1.1821133
1.1821124
1.1818409
1.1803829
1.1780222
1.1776724
1.1758719
1.1820976
1.1820968
1.1820961
1.1820949
1.1820941
1.1820938
1.1807338
1.1780434
1.1778597
1.1756762
1.1820794
1.182079
1.1820775
1.1820744
1.1820664
1.1820594
1.1812691
1.1781708
1.1779053
1.1758429
1.1820422
1.1820405
1.182038
1.1820341
1.1820293
1.182022
1.1815735
1.1784378
1.1779137
1.1757719
1.1820046
1.1820025
1.1820009
1.181998
1.1819937
1.1819865
1.1817833
1.1785897
1.1776438
1.1761686
1.1819684
1.1819666
1.1819662
1.1819622
1.1819572
1.1819514
1.1818981
1.1789791
1.1779579
1.1765273
1.1819357
1.181934
1.1819319
1.1819288
1.1819234
1.1819184
1.1819133
1.1794002
1.1789121
1.1755337
1.1819037
1.181902
1.1818999
1.1818979
1.1818943
1.1818883
1.1818829
1.1798296
1.1785926
1.1760679
1.1818737
1.1818718
1.1818708
1.1818688
1.1818662
1.1818493
1.1818336
1.1810705
1.1792866
1.1754812
1.1818374
1.1818326
1.1818278
1.1818194
1.1818093
1.1817952
1.1817799
1.1805508
1.1787796
1.1738375
1.1770119
1.1764682
1.1764746
1.1757767
1.1751104
1.1751081
1.1751059
1.1751053
1.1751046
1.1751036
1.1796434
1.1779729
1.1772011
1.176953
1.1757686
1.1751024
1.1751008
1.1752154
1.1754733
1.1757622
1.1824923
1.1787827
1.1787833
1.1771955
1.1764606
1.1757601
1.1757587
1.175759
1.1757586
1.1757582
1.1824806
1.1787714
1.1796296
1.1779592
1.177184
1.1764476
1.1763013
1.1758635
1.1757453
1.1757443
1.1824599
1.1787498
1.1805093
1.1787499
1.1771629
1.1771633
1.1765744
1.1764234
1.1762719
1.1761531
1.1824398
1.1787295
1.1804888
1.1787291
1.1779159
1.1771416
1.1771389
1.1768965
1.1764011
1.1764008
1.1824178
1.178708
1.1824181
1.1787086
1.1781574
1.1778913
1.1771178
1.1771161
1.1767666
1.1763282
1.1823985
1.1795457
1.1823982
1.1787192
1.1786869
1.1778726
1.1772652
1.177098
1.1770982
1.1759266
1.1823816
1.1795288
1.1823809
1.1795278
1.1789693
1.1786448
1.1778548
1.1770807
1.1770797
1.1759645
1.1823625
1.1795101
1.1823624
1.1795098
1.17951
1.1786527
1.1778377
1.1770628
1.1770619
1.1767959
1.1823449
1.1803949
1.1823451
1.1802692
1.1803955
1.178636
1.1781912
1.1770462
1.1770456
1.1769488
1.1823292
1.1823292
1.1823297
1.18038
1.1803799
1.1791528
1.1786191
1.1771712
1.1770302
1.1770297
1.1823154
1.1803651
1.182315
1.1813154
1.1813149
1.1794623
1.1786046
1.1775983
1.1771086
1.1762105
1.1822977
1.1809283
1.1822946
1.1821894
1.1822884
1.1794327
1.1785718
1.1777372
1.1771169
1.1758323
1.1822647
1.1822629
1.1822626
1.1822606
1.1822552
1.1801153
1.1791261
1.1773712
1.1772048
1.1755642
1.1822327
1.1822323
1.1822317
1.1822313
1.182229
1.1802774
1.1793721
1.1773334
1.1770999
1.1761274
1.1822055
1.1822045
1.1822033
1.1822031
1.1822025
1.1803783
1.1797416
1.1775182
1.1775102
1.1761185
1.18218
1.1821788
1.1821779
1.1821762
1.1821744
1.1806666
1.180041
1.1776275
1.1774273
1.1761572
1.182155
1.1821543
1.1821537
1.1821521
1.1821514
1.1809689
1.1800068
1.1778114
1.1770309
1.1768472
1.1821324
1.1821317
1.1821307
1.1821306
1.1821301
1.1816294
1.180029
1.1781864
1.1777226
1.1761311
1.1821127
1.1821122
1.1821119
1.1821107
1.1821099
1.1820029
1.1800984
1.1782339
1.1774536
1.1766519
1.1820953
1.1820947
1.1820938
1.1820931
1.1820921
1.1820917
1.1803645
1.1784948
1.1779746
1.176541
1.1820782
1.182077
1.1820744
1.1820701
1.1820629
1.1820564
1.1805817
1.1785602
1.1775773
1.1771082
1.1820379
1.1820359
1.1820348
1.1820314
1.182026
1.1820179
1.1811123
1.1787253
1.1778636
1.1768983
1.1819999
1.1819983
1.1819976
1.1819946
1.1819898
1.1819822
1.1815389
1.17902
1.17842
1.1761656
1.1819651
1.181964
1.181962
1.1819582
1.1819541
1.1819495
1.1818124
1.1790999
1.1784051
1.1762518
1.1819328
1.1819312
1.1819291
1.1819262
1.1819216
1.1819182
1.1819111
1.1794712
1.1783618
1.1770461
1.1819006
1.1818995
1.1818979
1.1818957
1.181893
1.1818871
1.1818809
1.1803854
1.1790833
1.1765027
1.1818714
1.18187
1.181869
1.1818674
1.1818623
1.1818435
1.1818294
1.1808363
1.1790428
1.1763393
1.1818328
1.1818297
1.1818235
1.1818146
1.1818022
1.1817926
1.1817781
1.1809067
1.1795717
1.1743126
1.1772179
1.1772189
1.1764849
1.1757854
1.1751181
1.1744862
1.1744834
1.1749349
1.1751116
1.1751104
1.1805551
1.1779815
1.1772086
1.1772084
1.1757738
1.1751083
1.1751058
1.1751049
1.1751042
1.1751035
1.182496
1.1787866
1.1787873
1.1771997
1.1764645
1.1757638
1.1750985
1.1750981
1.1750977
1.1750974
1.1824872
1.1787771
1.1796343
1.1779619
1.1771864
1.1764151
1.1757485
1.1757463
1.1757176
1.1756018
1.1824612
1.1796083
1.180511
1.1785688
1.1771635
1.1764819
1.1759869
1.1757224
1.175721
1.1757202
1.1824386
1.1814272
1.1818761
1.1787277
1.1779137
1.1771388
1.176401
1.1762367
1.1756998
1.1756993
1.1824166
1.1792261
1.1824162
1.1787068
1.1778905
1.177114
1.1771149
1.176378
1.1760266
1.1755065
1.182396
1.1787564
1.1823961
1.1786852
1.1786002
1.1770949
1.1770948
1.1766558
1.1763583
1.175384
1.1823769
1.1795243
1.1823765
1.1786695
1.1786653
1.1778072
1.1770764
1.1770445
1.1765406
1.1758003
1.1823584
1.1795059
1.182358
1.1791795
1.178953
1.1778333
1.1771756
1.1770578
1.1769526
1.1758725
1.1823419
1.1794889
1.1823415
1.1794887
1.1794892
1.1784689
1.1778161
1.1770419
1.1770407
1.1760322
1.1823262
1.1798314
1.1823263
1.1794741
1.1802489
1.1786155
1.1778006
1.1770258
1.1770252
1.1753736
1.1823126
1.1794601
1.1823123
1.1803618
1.1803619
1.1786018
1.1781259
1.1770083
1.177005
1.1759761
1.1822895
1.1803374
1.1822861
1.1803338
1.1812804
1.1793288
1.1784924
1.1771025
1.1771508
1.1751293
1.1822564
1.1803048
1.1822538
1.1812527
1.1819998
1.179394
1.178537
1.1772389
1.1771951
1.175245
1.1822257
1.182225
1.1822241
1.1812227
1.1822203
1.179524
1.1787683
1.1773375
1.1772448
1.1758828
1.1821991
1.1802479
1.1821968
1.1821961
1.1821957
1.1799691
1.1791793
1.1773262
1.1771737
1.1765338
1.1821735
1.1821731
1.1821722
1.1821711
1.1821714
1.1802192
1.179314
1.1774731
1.1774292
1.1765304
1.18215
1.1821493
1.1821486
1.1821474
1.1821462
1.1801952
1.1797431
1.1774508
1.1774561
1.1766999
1.1821281
1.1821272
1.1821265
1.1821252
1.1821248
1.1805019
1.1798317
1.1776217
1.1772418
1.1770359
1.1821087
1.1821081
1.1821078
1.1821073
1.182106
1.1810535
1.1799205
1.1779745
1.1779238
1.1766657
1.1820916
1.1820911
1.1820903
1.1820897
1.1820886
1.1817581
1.1797996
1.1783079
1.1775981
1.1773068
1.1820707
1.182069
1.1820666
1.1820623
1.1820553
1.1820478
1.180738
1.1785541
1.1780304
1.1770743
1.1820303
1.182029
1.1820272
1.1820241
1.1820184
1.1820119
1.180844
1.1788003
1.1779161
1.1773998
1.1819947
1.1819933
1.1819922
1.1819886
1.181985
1.1819779
1.1810858
1.1791462
1.178292
1.1770197
1.1819605
1.1819594
1.1819573
1.1819551
1.1819499
1.1819445
1.1814459
1.179259
1.1788776
1.1760436
1.1819271
1.1819261
1.1819245
1.1819219
1.1819184
1.181913
1.1818947
1.1791228
1.1782021
1.1770809
1.1818965
1.1818955
1.181894
1.1818918
1.18189
1.1818841
1.1818791
1.1798338
1.1788956
1.1765549
1.1818683
1.1818671
1.1818657
1.1818638
1.1818568
1.1818393
1.1818282
1.1805563
1.1802235
1.1746876
1.1818251
1.1818221
1.1818164
1.181811
1.1817991
1.1817853
1.1817723
1.1808259
1.1794994
1.1758604
1.1788166
1.1772284
1.1752061
1.1744992
1.174496
1.1741795
1.1742476
1.1744903
1.1744899
1.1744881
1.1805615
1.1779874
1.1772145
1.1757803
1.1751154
1.1744828
1.1744799
1.1744792
1.1744784
1.1744775
1.1825006
1.1787907
1.1779766
1.1772034
1.1757701
1.1751039
1.1747496
1.1748017
1.1746763
1.1746118
1.1824929
1.1787829
1.1787828
1.1771919
1.1764542
1.1757529
1.1750855
1.1750814
1.1750789
1.1750771
1.1824643
1.1787544
1.1796108
1.1777827
1.1771624
1.1761342
1.1757216
1.1753086
1.1750523
1.1750515
1.1824362
1.1795833
1.1806637
1.1779108
1.1771342
1.176942
1.1763534
1.1756931
1.1750706
1.1750287
1.1824132
1.1806054
1.1814338
1.1785608
1.1778832
1.1771082
1.176529
1.175671
1.1753572
1.1750078
1.1823901
1.1813902
1.1813892
1.1786779
1.1778636
1.1770891
1.1770882
1.1759856
1.1756521
1.1749375
1.18237
1.1804196
1.1823693
1.1786589
1.1784596
1.1775043
1.1770693
1.1763213
1.175684
1.1748803
1.1823532
1.1806575
1.1823523
1.1794433
1.1786417
1.1778257
1.1770511
1.1766747
1.1762603
1.1745883
1.1823363
1.1803862
1.1823358
1.1794833
1.1789056
1.1778111
1.1770936
1.1769735
1.1768714
1.1746698
1.1823206
1.1823206
1.1823205
1.1794681
1.1794676
1.1781315
1.1777946
1.1770198
1.1770192
1.1752106
1.1823078
1.1803576
1.1823078
1.1803543
1.1796528
1.1785879
1.177768
1.1769923
1.1769903
1.1755579
1.1822748
1.1822733
1.1822714
1.1803186
1.1803162
1.1785534
1.1782004
1.1769614
1.1769582
1.1758354
1.1822422
1.182241
1.1822399
1.1808163
1.1807813
1.1789663
1.1785071
1.176978
1.1769803
1.1760283
1.1822146
1.1822137
1.1822131
1.1811177
1.1816146
1.1793562
1.1784978
1.1771822
1.1769555
1.1768601
1.1821895
1.1821888
1.182188
1.181847
1.1821848
1.1793318
1.1786738
1.1774212
1.1773214
1.1768048
1.182164
1.1821632
1.182163
1.1821628
1.1821623
1.1795239
1.179007
1.1776322
1.1771368
1.176857
1.1821426
1.181142
1.1821412
1.1821406
1.1821386
1.1799178
1.1792741
1.1776778
1.177682
1.1767991
1.1821225
1.182122
1.1821207
1.1821191
1.1821182
1.1801667
1.1793905
1.1779033
1.177391
1.1769938
1.1821025
1.1821021
1.1821016
1.1821009
1.1821004
1.1805665
1.1797509
1.1781179
1.1780637
1.1767519
1.1820855
1.1820854
1.1820851
1.1820848
1.1820833
1.1813091
1.1800371
1.178283
1.1778641
1.1770277
1.1820589
1.1820571
1.1820549
1.1820522
1.1820455
1.1818307
1.1800003
1.1786939
1.1779062
1.1775277
1.1820194
1.1820175
1.1820152
1.182013
1.182008
1.1820039
1.1808321
1.1787042
1.1786481
1.1770026
1.181986
1.1819844
1.1819818
1.1819788
1.1819763
1.1819711
1.180971
1.1791092
1.1783169
1.1776185
1.1819535
1.1819521
1.1819502
1.1819465
1.1819432
1.1819395
1.1817215
1.1793117
1.1789787
1.1773063
1.1819198
1.1819186
1.1819168
1.1819148
1.1819112
1.1819071
1.1819022
1.1798531
1.1791993
1.1769118
1.1818902
1.1818891
1.1818879
1.1818874
1.1818843
1.1818792
1.1818724
1.1802749
1.1798477
1.1770239
1.1818626
1.1818616
1.1818603
1.181857
1.1818455
1.1818323
1.1818184
1.181034
1.1794993
1.1773362
1.1818175
1.1818134
1.1818065
1.1818003
1.1817901
1.1817785
1.1817671
1.1814039
1.1801345
1.1776558
1.1776614
1.1764202
1.1739049
1.1739061
1.1739055
1.1739044
1.1745003
1.1744998
1.1744977
1.1750329
1.1805635
1.1796607
1.1779894
1.1763357
1.1744881
1.1744897
1.1744864
1.1744853
1.1747952
1.1751119
1.1825027
1.1796502
1.1796502
1.1779777
1.1757706
1.1751075
1.1748573
1.1751041
1.1747898
1.174723
1.1824938
1.1796419
1.1813023
1.1779663
1.1764521
1.1756678
1.1750814
1.1750762
1.174884
1.1744405
1.1824595
1.1824582
1.1824561
1.1785732
1.1771523
1.1763947
1.1750476
1.1750454
1.1746039
1.1744121
1.1824274
1.1824263
1.1824246
1.1787129
1.1778958
1.1763848
1.1750215
1.1749503
1.1744972
1.1743878
1.1824007
1.1823999
1.1823985
1.1786885
1.177871
1.1763608
1.1754699
1.1748846
1.1745054
1.1743286
1.1823776
1.182377
1.1823766
1.1786664
1.1778513
1.177075
1.1756902
1.1749485
1.174609
1.174202
1.1823588
1.1823584
1.1823584
1.1792476
1.1786474
1.1770567
1.1763208
1.1749583
1.1747022
1.1740942
1.1823422
1.1778177
1.1823417
1.1794882
1.1786306
1.1771565
1.1768029
1.1751821
1.174836
1.1740722
1.1823265
1.1823261
1.1823258
1.178633
1.1787316
1.1777995
1.1770248
1.1758076
1.1756195
1.1741493
1.1823126
1.177221
1.1823122
1.1794598
1.1794584
1.1777797
1.1772184
1.1766471
1.1765731
1.1744786
1.182286
1.1814704
1.1822833
1.1792398
1.1794245
1.1782244
1.177746
1.1769698
1.1769416
1.1751979
1.1822531
1.1822523
1.1822503
1.1793956
1.1798918
1.178534
1.1777186
1.1769407
1.1769385
1.1759348
1.182223
1.1785125
1.1822213
1.1795784
1.1804821
1.1785057
1.1781131
1.1769148
1.1769124
1.1763273
1.182198
1.1821972
1.1821969
1.1802462
1.1807873
1.178621
1.1784517
1.1771431
1.1768892
1.1766298
1.1821747
1.1793218
1.1821732
1.1802216
1.1818165
1.1791379
1.1784549
1.1772012
1.1771161
1.1768638
1.1821516
1.1792986
1.1821498
1.1804835
1.1821461
1.1792932
1.1784343
1.1775722
1.1772439
1.1770644
1.1821304
1.18213
1.1821294
1.1805362
1.1821274
1.1792719
1.1786364
1.1777068
1.1775369
1.1769569
1.1821108
1.1811105
1.1821102
1.1817024
1.1821095
1.1797104
1.1788098
1.1780686
1.1775561
1.1772532
1.1820938
1.1820935
1.1820929
1.1820927
1.1820911
1.1801401
1.1792428
1.1780704
1.1780584
1.1770142
1.1820779
1.1817257
1.182075
1.1820712
1.1820663
1.1804403
1.1797783
1.1781751
1.1780214
1.1771495
1.1820418
1.1820402
1.1820388
1.1820355
1.1820295
1.1810212
1.1800067
1.1782224
1.1780997
1.1772261
1.1820046
1.1820032
1.1820014
1.1819985
1.1819937
1.1816356
1.1805418
1.178528
1.1779381
1.177655
1.1819704
1.1819689
1.1819667
1.1819643
1.1819629
1.1819583
1.1805724
1.1790624
1.1785284
1.1775416
1.1819399
1.1819384
1.1819368
1.1819346
1.1819312
1.1819262
1.1812927
1.1793578
1.1785839
1.1774846
1.1819098
1.1819089
1.1819074
1.1819061
1.181902
1.1818971
1.1816862
1.1798267
1.1785992
1.177912
1.1818821
1.1818808
1.1818789
1.1818779
1.1818756
1.1818713
1.1818557
1.1810215
1.1805632
1.1777089
1.1818548
1.1818532
1.1818492
1.1818421
1.181832
1.1818185
1.1818055
1.1810974
1.1804439
1.1777649
1.1818076
1.1818045
1.1817997
1.1817922
1.1817826
1.181768
1.1817545
1.1814902
1.1806775
1.1776838
1.1762965
1.1742292
1.1727957
1.1727951
1.1727896
1.1733252
1.1733218
1.1733212
1.1733185
1.1737522
1.1786946
1.1762713
1.1742579
1.1733194
1.1733167
1.1733118
1.1733096
1.1737243
1.1738757
1.1738746
1.1787903
1.1772019
1.1772015
1.1738749
1.173777
1.1738611
1.1738536
1.1738481
1.173844
1.1738412
1.1802134
1.1771685
1.1779414
1.1764304
1.1742142
1.1738272
1.1738218
1.1738177
1.1738137
1.1738114
1.1824331
1.1771339
1.1783006
1.1768
1.1751342
1.174396
1.1737944
1.1737927
1.1737909
1.1737891
1.1824052
1.1786063
1.1793671
1.1771029
1.1763652
1.1750005
1.174368
1.1738675
1.1738846
1.1737689
1.182382
1.1795292
1.1800015
1.1774243
1.1770796
1.1756963
1.1747151
1.1741982
1.1741992
1.1737473
1.1823609
1.1793495
1.1804105
1.1778363
1.1773244
1.1764911
1.1756182
1.174337
1.1743289
1.1737431
1.1823439
1.1794913
1.1813437
1.1778192
1.177817
1.1770411
1.1764278
1.1749026
1.1746271
1.1739401
1.1823286
1.1795669
1.1804708
1.1782874
1.178616
1.1772685
1.1770259
1.1759068
1.1753958
1.1742028
1.1823146
1.1802443
1.1812232
1.1786039
1.1786015
1.1777833
1.1770061
1.176366
1.1761255
1.1747378
1.1822875
1.1794339
1.182285
1.1785734
1.179427
1.1777492
1.1773127
1.1767799
1.1765342
1.1757153
1.1822575
1.1769578
1.1822547
1.1785426
1.1794691
1.1780669
1.1777174
1.1769415
1.1769242
1.1759029
1.1822301
1.1812292
1.182228
1.1785146
1.1802191
1.1784685
1.1776927
1.1769161
1.1769139
1.176524
1.1793501
1.1783368
1.1822011
1.179347
1.18067
1.1784859
1.1780134
1.1769229
1.1768917
1.1768899
1.1821783
1.1821774
1.1821763
1.1793224
1.1808339
1.1784606
1.1784282
1.1773633
1.1771526
1.1768679
1.1821561
1.1777852
1.1821552
1.1801532
1.1815899
1.1786378
1.1784384
1.1775015
1.1774458
1.1768448
1.1815443
1.1792832
1.1821349
1.1808282
1.182132
1.1788467
1.1784179
1.1776323
1.1775193
1.1771554
1.1821171
1.1821165
1.182116
1.1808788
1.1821143
1.1791663
1.1784968
1.1779404
1.1775468
1.177458
1.1820989
1.1792463
1.1820984
1.1813686
1.182096
1.1793213
1.1787586
1.1782084
1.1777878
1.1773965
1.1820823
1.1820821
1.1820818
1.1818112
1.1820791
1.1796493
1.1790879
1.1782419
1.1781052
1.1772169
1.182057
1.1801173
1.1820518
1.1820477
1.1820433
1.1799021
1.1790079
1.1784893
1.1779897
1.1777591
1.18202
1.1806939
1.1820173
1.1820161
1.1820103
1.1805736
1.1794309
1.1786663
1.1780853
1.1778885
1.1819865
1.1819851
1.1819839
1.1819826
1.181978
1.1815979
1.1800829
1.1787342
1.1784898
1.1778124
1.1819557
1.1819542
1.1819522
1.1819498
1.1819481
1.1819172
1.1806674
1.1789931
1.1783793
1.1779535
1.1819265
1.1819259
1.181924
1.1819219
1.1819185
1.1819133
1.180989
1.1798238
1.1790333
1.1780903
1.1818974
1.1818965
1.1818957
1.1818949
1.1818921
1.1818859
1.1815828
1.1800136
1.1796912
1.1780268
1.1818719
1.1818707
1.1818691
1.1818662
1.1818652
1.1818553
1.181842
1.1804456
1.179547
1.1787859
1.1818396
1.1818361
1.1818321
1.1818265
1.1818175
1.1818055
1.181795
1.181256
1.1807847
1.1786961
1.1817916
1.1817881
1.1817852
1.1817799
1.1817698
1.1817588
1.1817445
1.1815138
1.1808177
1.1792351
1.1772185
1.1753175
1.1742915
1.1733274
1.1733202
1.173313
1.1733104
1.1733081
1.1733038
1.1733
1.1787895
1.1772014
1.1772017
1.1747348
1.1738691
1.173456
1.1732829
1.1732749
1.1734597
1.1736695
1.181483
1.1771637
1.1772299
1.1764276
1.1740358
1.1738244
1.1738178
1.1737277
1.1738086
1.1738069
1.1824315
1.1779066
1.1779053
1.1771316
1.1751607
1.1737967
1.1737919
1.1737887
1.1737864
1.1737843
1.1824047
1.1778799
1.1786935
1.177104
1.1763669
1.1743377
1.17377
1.1737691
1.1737672
1.1737652
1.1823824
1.1778574
1.1795284
1.1776984
1.1768931
1.1748689
1.1739685
1.1737488
1.1737468
1.1737455
1.1823618
1.1786516
1.1804113
1.1778363
1.1770614
1.1758943
1.1743515
1.1739727
1.1737553
1.1737272
1.1823444
1.17782
1.1823448
1.1778195
1.1777592
1.1764276
1.1750351
1.1741725
1.1740619
1.1737125
1.1823295
1.1786462
1.1823291
1.1778774
1.1778027
1.177027
1.176291
1.1745973
1.1744383
1.1739211
1.1823157
1.1777909
1.1823149
1.178429
1.1782424
1.1770073
1.1768419
1.175672
1.1750687
1.1740919
1.1822895
1.1777639
1.1822865
1.1785727
1.1785697
1.1772687
1.1769738
1.1762196
1.1759093
1.1746235
1.182259
1.1777336
1.182257
1.178133
1.1787
1.1777218
1.1769463
1.1766454
1.1763908
1.1756319
1.182233
1.1787078
1.1822312
1.1784894
1.1793713
1.1776952
1.1772312
1.1769177
1.1766626
1.1763977
1.1822075
1.1784865
1.1822054
1.1785251
1.179348
1.1779514
1.1776262
1.1768939
1.1768927
1.176664
1.1821823
1.180298
1.1821806
1.1784693
1.1801757
1.1783684
1.1776467
1.1771302
1.1770214
1.1767865
1.1821608
1.1784503
1.1821595
1.1791749
1.1803656
1.1784431
1.1779045
1.1773759
1.1771993
1.1768904
1.1821417
1.182141
1.1821407
1.1791418
1.1807158
1.178424
1.178277
1.1775658
1.1773533
1.1771743
1.1821219
1.1784118
1.182121
1.1805589
1.1816103
1.1785504
1.1784049
1.1777309
1.1775559
1.1772652
1.1821035
1.1792508
1.182103
1.1813539
1.182101
1.1787598
1.1783877
1.1779265
1.1778089
1.1772716
1.1820879
1.1820875
1.1820874
1.1809463
1.1820852
1.1792312
1.1786643
1.1781083
1.1778604
1.1776434
1.1820694
1.1813924
1.1820653
1.1819381
1.1820579
1.1795146
1.1788632
1.17833
1.1779325
1.1778214
1.182033
1.1820313
1.18203
1.1819294
1.1820234
1.1798921
1.1791223
1.1784146
1.1781949
1.1778457
1.1819996
1.1819987
1.1819979
1.1819253
1.181992
1.1805863
1.1795984
1.1785459
1.1782584
1.1779382
1.1819709
1.1819698
1.1819683
1.1819661
1.1819622
1.1814843
1.1802946
1.1787594
1.1786517
1.1777619
1.1819413
1.1819402
1.181939
1.1819381