/*--------------------------------*- C++ -*----------------------------------*\
| =========                 |                                                 |
| \\      /  F ield         | OpenFOAM: The Open Source CFD Toolbox           |
|  \\    /   O peration     | Version:  2.1.0                                 |
|   \\  /    A nd           | Web:      www.OpenFOAM.org                      |
|    \\/     M anipulation  |                                                 |
\*---------------------------------------------------------------------------*/
FoamFile
{
    version     2.0;
    format      ascii;
    class       volScalarField;
    location    "5000";
    object      k;
}
// * * * * * * * * * * * * * * * * * * * * * * * * * * * * * * * * * * * * * //

dimensions      [0 2 -2 0 0 0 0];

internalField   nonuniform List<scalar> 
15000
(
9.54869
0.926287
0.0513549
0.000911709
6.04012e-05
1.19091e-05
1.00562e-05
1.00046e-05
9.99992e-06
9.99968e-06
9.9999e-06
9.99983e-06
9.99948e-06
9.99969e-06
9.99989e-06
9.99974e-06
9.9997e-06
9.99991e-06
9.99991e-06
9.99991e-06
9.99991e-06
9.9999e-06
9.99971e-06
9.9995e-06
9.99951e-06
1.00022e-05
1.0002e-05
1.0002e-05
1.0002e-05
1.0002e-05
1.00009e-05
1.0002e-05
1.0001e-05
1.0001e-05
1.0002e-05
1.00021e-05
1.0001e-05
1.0001e-05
1.0002e-05
1.00009e-05
1.00021e-05
1.00021e-05
1.0002e-05
1e-05
1.05478e-05
4.06689e-05
0.00151597
0.052382
0.930969
9.5481
12.1456
1.59931
0.158032
0.00693602
5.17671e-05
1.1638e-05
1.00479e-05
1.0004e-05
9.99888e-06
9.99889e-06
9.99877e-06
9.9989e-06
1.0001e-05
9.99895e-06
9.99883e-06
9.99922e-06
9.99896e-06
9.99884e-06
9.99885e-06
9.99885e-06
9.99885e-06
9.99886e-06
9.99928e-06
1.00011e-05
1.0001e-05
1.00044e-05
1.00063e-05
1.00063e-05
1.00063e-05
1.00063e-05
1.0007e-05
1.00064e-05
1.00071e-05
1.00068e-05
1.00065e-05
1.00064e-05
1.0007e-05
1.00069e-05
1.00065e-05
1.00073e-05
1.00066e-05
1.00066e-05
1.00067e-05
1.00905e-05
1.59384e-05
0.000291133
0.00708637
0.158477
1.60257
12.1456
11.3363
2.07049
0.27044
0.0162469
0.000647692
2.36316e-05
1.02811e-05
1.00073e-05
1.00005e-05
1.0002e-05
1.00004e-05
1.00006e-05
1.00056e-05
1.00004e-05
1.00004e-05
9.9985e-06
1.00004e-05
1.00005e-05
1.00005e-05
1.00005e-05
1.0002e-05
1.00005e-05
9.99863e-06
1.0006e-05
1.00061e-05
1.00101e-05
1.00063e-05
1.00063e-05
1.00063e-05
1.00061e-05
1.00063e-05
1.00064e-05
1.00065e-05
1.00061e-05
1.00064e-05
1.00065e-05
1.00062e-05
1.00062e-05
1.00065e-05
1.00065e-05
1.00063e-05
1.00065e-05
1.00091e-05
1.0065e-05
1.4897e-05
0.000328482
0.0161218
0.271795
2.07432
11.3394
9.8705
2.59885
0.390442
0.0323694
0.000825799
2.24141e-05
1.02592e-05
1.00067e-05
1.0004e-05
1.00018e-05
1.00052e-05
1.00056e-05
1.00053e-05
1.00054e-05
1.00049e-05
1.00008e-05
1.00052e-05
1.00052e-05
1.00052e-05
1.00051e-05
1.00019e-05
1.0005e-05
1.00008e-05
1.00057e-05
1.00058e-05
1.00096e-05
1.00055e-05
1.00054e-05
1.00055e-05
1.00053e-05
1.00055e-05
1.00055e-05
1.00057e-05
1.00056e-05
1.00055e-05
1.00056e-05
1.00057e-05
1.00056e-05
1.00056e-05
1.00057e-05
1.00081e-05
1.00063e-05
1.00228e-05
1.06383e-05
4.50138e-05
0.00148619
0.0328374
0.391119
2.59969
9.87321
8.6918
3.3803
0.565235
0.0505057
0.00257467
7.30583e-05
1.1216e-05
1.00234e-05
1.00068e-05
1.00015e-05
1.00048e-05
1.00054e-05
1.00049e-05
1.00049e-05
1.00043e-05
1.00029e-05
1.00047e-05
1.00048e-05
1.00048e-05
1.00046e-05
1.00016e-05
1.00045e-05
1.00028e-05
1.00054e-05
1.00054e-05
1.00094e-05
1.00087e-05
1.00086e-05
1.00087e-05
1.00087e-05
1.00087e-05
1.00088e-05
1.00089e-05
1.00089e-05
1.00089e-05
1.0009e-05
1.00091e-05
1.0009e-05
1.00077e-05
1.00091e-05
1.0012e-05
1.00062e-05
1.00248e-05
1.06209e-05
4.58542e-05
0.00185528
0.0503974
0.566342
3.38072
8.69352
7.86852
4.19482
0.815559
0.0824
0.0033337
8.0849e-05
1.12916e-05
1.00245e-05
1.00101e-05
1.00014e-05
1.00063e-05
1.00049e-05
1.00044e-05
1.00079e-05
1.00075e-05
1.00082e-05
1.00077e-05
1.00063e-05
1.00078e-05
1.00074e-05
1.00012e-05
1.0006e-05
1.00078e-05
1.00046e-05
1.00048e-05
1.00086e-05
1.00083e-05
1.00082e-05
1.00083e-05
1.00083e-05
1.00083e-05
1.00084e-05
1.00084e-05
1.00084e-05
1.00084e-05
1.00087e-05
1.00087e-05
1.00088e-05
1.00106e-05
1.00089e-05
1.00145e-05
1.00068e-05
1.0059e-05
1.23634e-05
0.000129651
0.00438226
0.0830364
0.815969
4.19328
7.86934
7.3177
4.93546
1.13769
0.127729
0.00688442
0.000204095
1.39867e-05
1.00734e-05
1.0013e-05
1.00014e-05
1.00096e-05
1.00044e-05
1.0006e-05
1.00076e-05
1.00071e-05
1.00078e-05
1.00075e-05
1.00108e-05
1.00074e-05
1.00071e-05
1.00011e-05
1.00105e-05
1.00076e-05
1.00066e-05
1.00053e-05
1.00105e-05
1.00103e-05
1.00103e-05
1.00098e-05
1.00113e-05
1.00099e-05
1.00114e-05
1.001e-05
1.00115e-05
1.00101e-05
1.00082e-05
1.00102e-05
1.00084e-05
1.00143e-05
1.00088e-05
1.00183e-05
1.00069e-05
1.00655e-05
1.26723e-05
0.000151898
0.00577521
0.127527
1.13837
4.9349
7.31802
6.95283
5.51012
1.54332
0.201855
0.00955577
0.000253147
1.47522e-05
1.00856e-05
1.00168e-05
1.00015e-05
1.00115e-05
1.00043e-05
1.00092e-05
1.00073e-05
1.0009e-05
1.00076e-05
1.00104e-05
1.00103e-05
1.00102e-05
1.00061e-05
1.0001e-05
1.001e-05
1.00072e-05
1.00086e-05
1.0007e-05
1.00127e-05
1.00123e-05
1.00123e-05
1.00143e-05
1.0011e-05
1.00144e-05
1.00111e-05
1.00133e-05
1.00113e-05
1.00133e-05
1.0008e-05
1.00134e-05
1.00082e-05
1.00166e-05
1.00088e-05
1.00202e-05
1.00087e-05
1.0149e-05
1.69847e-05
0.000332043
0.0107876
0.202632
1.5435
5.5086
6.95278
6.70428
5.90572
1.9668
0.310476
0.0178694
0.000531446
2.1152e-05
1.02088e-05
1.00197e-05
1.0002e-05
1.00148e-05
1.00043e-05
1.00118e-05
1.0007e-05
1.00111e-05
1.00072e-05
1.00102e-05
1.00131e-05
1.00098e-05
1.00086e-05
1.0001e-05
1.00126e-05
1.00069e-05
1.00134e-05
1.00106e-05
1.00165e-05
1.00173e-05
1.00173e-05
1.00141e-05
1.00139e-05
1.0014e-05
1.00141e-05
1.00158e-05
1.0011e-05
1.00161e-05
1.0008e-05
1.00156e-05
1.00082e-05
1.00199e-05
1.0009e-05
1.00236e-05
1.00097e-05
1.01767e-05
1.86229e-05
0.000435375
0.0164999
0.31012
1.96715
5.90549
6.70416
6.52858
6.17131
2.40028
0.456873
0.0275546
0.000732037
2.42281e-05
1.02607e-05
1.00256e-05
1.00023e-05
1.00165e-05
1.00044e-05
1.00148e-05
1.0007e-05
1.00144e-05
1.00071e-05
1.00129e-05
1.00127e-05
1.00125e-05
1.00079e-05
1.0001e-05
1.0012e-05
1.00067e-05
1.00132e-05
1.00126e-05
1.00186e-05
1.00171e-05
1.00169e-05
1.00139e-05
1.00136e-05
1.00167e-05
1.00138e-05
1.00191e-05
1.0011e-05
1.00188e-05
1.00082e-05
1.00187e-05
1.00084e-05
1.00217e-05
1.00092e-05
1.00252e-05
1.00126e-05
1.03613e-05
2.83754e-05
0.000862887
0.0290481
0.457758
2.4004
6.17016
6.52833
6.39845
6.33699
2.80527
0.647206
0.0485258
0.00144061
3.91859e-05
1.05394e-05
1.00289e-05
1.00032e-05
1.00195e-05
1.00049e-05
1.00169e-05
1.00071e-05
1.0016e-05
1.0007e-05
1.00127e-05
1.00154e-05
1.0012e-05
1.00102e-05
1.00011e-05
1.00144e-05
1.00064e-05
1.00128e-05
1.0016e-05
1.00233e-05
1.00166e-05
1.00196e-05
1.00134e-05
1.00163e-05
1.00164e-05
1.00167e-05
1.00212e-05
1.00142e-05
1.00212e-05
1.00084e-05
1.00205e-05
1.00087e-05
1.00245e-05
1.00098e-05
1.00288e-05
1.00169e-05
1.04502e-05
3.43194e-05
0.00126705
0.0472385
0.646673
2.80526
6.3372
6.39828
6.31636
6.44796
3.16072
0.867179
0.0773167
0.00220651
5.03897e-05
1.07034e-05
1.00302e-05
1.00036e-05
1.0021e-05
1.00052e-05
1.00196e-05
1.00073e-05
1.0019e-05
1.00071e-05
1.00154e-05
1.0015e-05
1.00145e-05
1.00095e-05
1.00011e-05
1.00138e-05
1.00062e-05
1.00124e-05
1.0018e-05
1.00231e-05
1.00194e-05
1.00192e-05
1.00162e-05
1.00159e-05
1.00177e-05
1.00164e-05
1.00245e-05
1.00143e-05
1.00239e-05
1.00089e-05
1.00232e-05
1.0009e-05
1.0026e-05
1.00101e-05
1.00282e-05
1.00296e-05
1.0863e-05
5.8259e-05
0.0024576
0.0787521
0.868073
3.16089
6.44705
6.31606
6.22295
6.51896
3.47857
1.11192
0.123989
0.00429632
9.14061e-05
1.13733e-05
1.00386e-05
1.00065e-05
1.00244e-05
1.00059e-05
1.00213e-05
1.00078e-05
1.00203e-05
1.00071e-05
1.00151e-05
1.00175e-05
1.00141e-05
1.00116e-05
1.00013e-05
1.00161e-05
1.00059e-05
1.00122e-05
1.00212e-05
1.00227e-05
1.00191e-05
1.00218e-05
1.0016e-05
1.00185e-05
1.00203e-05
1.00192e-05
1.00261e-05
1.00175e-05
1.00259e-05
1.00094e-05
1.00247e-05
1.00097e-05
1.00285e-05
1.00109e-05
1.0027e-05
1.00364e-05
1.11608e-05
8.01049e-05
0.00391116
0.122798
1.11136
3.47837
6.51942
6.2229
6.15865
6.56946
3.76182
1.37422
0.185481
0.00676321
0.000131259
1.19063e-05
1.0045e-05
1.00088e-05
1.00236e-05
1.00062e-05
1.00238e-05
1.00081e-05
1.00235e-05
1.00073e-05
1.00176e-05
1.00171e-05
1.00165e-05
1.00109e-05
1.00014e-05
1.00154e-05
1.00058e-05
1.00119e-05
1.00231e-05
1.00223e-05
1.00216e-05
1.00215e-05
1.00186e-05
1.00181e-05
1.0023e-05
1.0019e-05
1.003e-05
1.00176e-05
1.00285e-05
1.001e-05
1.00271e-05
1.00101e-05
1.00297e-05
1.00113e-05
1.00258e-05
1.00573e-05
1.22004e-05
0.000145431
0.00713286
0.186865
1.37497
3.7618
6.56865
6.15837
6.1108
6.6077
3.99438
1.64955
0.27167
0.012674
0.000252207
1.36816e-05
1.00686e-05
1.00134e-05
1.00227e-05
1.00098e-05
1.00252e-05
1.00114e-05
1.00224e-05
1.00074e-05
1.00174e-05
1.00195e-05
1.0016e-05
1.00129e-05
1.00016e-05
1.00175e-05
1.00055e-05
1.00117e-05
1.0026e-05
1.0022e-05
1.00213e-05
1.00239e-05
1.00184e-05
1.00205e-05
1.00252e-05
1.00217e-05
1.00293e-05
1.00208e-05
1.00302e-05
1.00107e-05
1.00284e-05
1.00109e-05
1.00325e-05
1.00134e-05
1.00245e-05
1.00714e-05
1.31348e-05
0.000221046
0.0119
0.270555
1.64888
3.99407
6.6082
6.11076
6.07345
6.63447
4.17361
1.92467
0.378392
0.0193743
0.000382587
1.53563e-05
1.00887e-05
1.00155e-05
1.00215e-05
1.00101e-05
1.00284e-05
1.00116e-05
1.00241e-05
1.00077e-05
1.00197e-05
1.00192e-05
1.00183e-05
1.00122e-05
1.00017e-05
1.00168e-05
1.00054e-05
1.00115e-05
1.00278e-05
1.00216e-05
1.00237e-05
1.00236e-05
1.00209e-05
1.00203e-05
1.00279e-05
1.00217e-05
1.00314e-05
1.00208e-05
1.00328e-05
1.00114e-05
1.00306e-05
1.00113e-05
1.00319e-05
1.00172e-05
1.00241e-05
1.0113e-05
1.5903e-05
0.0004114
0.020142
0.379674
1.92545
4.17376
6.63372
6.0732
6.04388
6.65283
4.32496
2.17956
0.510008
0.0346574
0.000750187
2.03852e-05
1.0151e-05
1.00199e-05
1.00209e-05
1.00134e-05
1.00274e-05
1.00134e-05
1.0023e-05
1.00079e-05
1.00195e-05
1.00214e-05
1.00178e-05
1.0014e-05
1.0002e-05
1.00187e-05
1.00051e-05
1.00114e-05
1.00305e-05
1.00214e-05
1.00234e-05
1.00259e-05
1.00207e-05
1.00225e-05
1.00297e-05
1.00243e-05
1.00308e-05
1.00237e-05
1.00341e-05
1.00122e-05
1.00317e-05
1.00134e-05
1.00304e-05
1.00199e-05
1.00242e-05
1.01485e-05
1.8821e-05
0.000653782
0.0326248
0.509021
2.17906
4.32453
6.65327
6.04384
6.02005
6.66362
4.44188
2.40377
0.65032
0.0492818
0.00114199
2.55824e-05
1.02102e-05
1.00222e-05
1.00201e-05
1.00136e-05
1.00292e-05
1.00158e-05
1.00247e-05
1.00082e-05
1.00217e-05
1.00211e-05
1.00199e-05
1.00133e-05
1.00021e-05
1.00184e-05
1.0005e-05
1.00113e-05
1.00323e-05
1.0021e-05
1.00256e-05
1.00256e-05
1.0023e-05
1.00223e-05
1.00324e-05
1.00243e-05
1.00329e-05
1.00238e-05
1.00373e-05
1.00129e-05
1.00342e-05
1.00168e-05
1.00296e-05
1.00233e-05
1.00249e-05
1.02478e-05
2.67766e-05
0.00122192
0.0513596
0.651509
2.40443
4.44212
6.66308
6.01985
6.00056
6.66976
4.53896
2.60105
0.804267
0.0788405
0.00212453
3.97946e-05
1.03775e-05
1.00271e-05
1.00196e-05
1.00166e-05
1.00284e-05
1.00189e-05
1.00237e-05
1.00085e-05
1.00214e-05
1.00232e-05
1.00195e-05
1.0015e-05
1.00046e-05
1.00177e-05
1.00048e-05
1.00113e-05
1.00348e-05
1.00208e-05
1.00253e-05
1.00278e-05
1.00228e-05
1.00245e-05
1.00338e-05
1.00268e-05
1.00323e-05
1.00264e-05
1.00364e-05
1.00139e-05
1.0033e-05
1.00198e-05
1.00286e-05
1.00255e-05
1.00259e-05
1.03475e-05
3.56532e-05
0.00190727
0.0768081
0.803362
2.6006
4.53863
6.66992
6.0005
5.98392
6.67004
4.61762
2.77147
0.954917
0.10849
0.00317419
5.49465e-05
1.05486e-05
1.00303e-05
1.00192e-05
1.00167e-05
1.00304e-05
1.00209e-05
1.00252e-05
1.00087e-05
1.00235e-05
1.00229e-05
1.00215e-05
1.00144e-05
1.00046e-05
1.00173e-05
1.00047e-05
1.00112e-05
1.00365e-05
1.00205e-05
1.00274e-05
1.00275e-05
1.0025e-05
1.00242e-05
1.0037e-05
1.00268e-05
1.00343e-05
1.00264e-05
1.00382e-05
1.00144e-05
1.00344e-05
1.00226e-05
1.00282e-05
1.00285e-05
1.00289e-05
1.06166e-05
5.89292e-05
0.00344665
0.110602
0.955973
2.77196
4.61773
6.66998
5.98373
5.96927
6.66789
4.68238
2.92012
1.11355
0.154025
0.0055905
9.38594e-05
1.09976e-05
1.00375e-05
1.00188e-05
1.00194e-05
1.00298e-05
1.00237e-05
1.00244e-05
1.00113e-05
1.00233e-05
1.00249e-05
1.00211e-05
1.0016e-05
1.00059e-05
1.00163e-05
1.00045e-05
1.00112e-05
1.00389e-05
1.00203e-05
1.0027e-05
1.00296e-05
1.00248e-05
1.00263e-05
1.00364e-05
1.00293e-05
1.00338e-05
1.00289e-05
1.00374e-05
1.00164e-05
1.00338e-05
1.00254e-05
1.00275e-05
1.00304e-05
1.0032e-05
1.08934e-05
8.35183e-05
0.00507773
0.152099
1.11281
2.91976
4.68245
6.66817
5.96932
5.95662
6.66409
4.73472
3.04533
1.26775
0.200975
0.00792662
0.000133159
1.14488e-05
1.00434e-05
1.0021e-05
1.00195e-05
1.00317e-05
1.00253e-05
1.0026e-05
1.00115e-05
1.00252e-05
1.00246e-05
1.00229e-05
1.00155e-05
1.00078e-05
1.0018e-05
1.00044e-05
1.00112e-05
1.00405e-05
1.002e-05
1.0029e-05
1.00293e-05
1.00269e-05
1.00261e-05
1.00382e-05
1.00293e-05
1.00357e-05
1.00289e-05
1.00392e-05
1.00193e-05
1.0033e-05
1.00278e-05
1.00273e-05
1.00331e-05
1.004e-05
1.16057e-05
0.000145463
0.00862713
0.203014
1.2688
3.0458
4.73445
6.66291
5.95624
5.94447
6.65585
4.77857
3.15278
1.42515
0.263691
0.0130749
0.000231142
1.25861e-05
1.00574e-05
1.0021e-05
1.0022e-05
1.00313e-05
1.00279e-05
1.00253e-05
1.00139e-05
1.0025e-05
1.00265e-05
1.00225e-05
1.00171e-05
1.001e-05
1.00174e-05
1.00042e-05
1.00112e-05
1.00428e-05
1.00198e-05
1.00286e-05
1.00312e-05
1.00267e-05
1.0028e-05
1.00377e-05
1.00315e-05
1.00353e-05
1.00311e-05
1.00385e-05
1.00221e-05
1.00321e-05
1.00302e-05
1.0027e-05
1.00345e-05
1.00477e-05
1.23165e-05
0.0002065
0.0119652
0.261869
1.42443
3.15238
4.7788
6.6571
5.9446
5.93392
6.64998
4.81529
3.24534
1.56938
0.327896
0.0175673
0.000323803
1.3701e-05
1.007e-05
1.00232e-05
1.00221e-05
1.00333e-05
1.00292e-05
1.00268e-05
1.00141e-05
1.00269e-05
1.00262e-05
1.00242e-05
1.00166e-05
1.00117e-05
1.00189e-05
1.00041e-05
1.00113e-05
1.00443e-05
1.00197e-05
1.00305e-05
1.00309e-05
1.00287e-05
1.00278e-05
1.00393e-05
1.00315e-05
1.00371e-05
1.00311e-05
1.00402e-05
1.00246e-05
1.00317e-05
1.00323e-05
1.0027e-05
1.00369e-05
1.00668e-05
1.40587e-05
0.000350676
0.0187122
0.329863
1.57036
3.24583
4.81503
6.6486
5.93352
5.92341
6.63983
4.84554
3.32879
1.70415
0.402625
0.0271896
0.000550816
1.64369e-05
1.01011e-05
1.00233e-05
1.00244e-05
1.00329e-05
1.00317e-05
1.00261e-05
1.00163e-05
1.00267e-05
1.00279e-05
1.00239e-05
1.00182e-05
1.00138e-05
1.00184e-05
1.0004e-05
1.00113e-05
1.00464e-05
1.00196e-05
1.00301e-05
1.00328e-05
1.00285e-05
1.00297e-05
1.00389e-05
1.00336e-05
1.00368e-05
1.00332e-05
1.00397e-05
1.00272e-05
1.00309e-05
1.00342e-05
1.0027e-05
1.0038e-05
1.00845e-05
1.57346e-05
0.000491545
0.025435
0.400871
1.70346
3.32841
4.84581
6.6411
5.9235
5.91431
6.63302
4.87101
3.40101
1.8251
0.47571
0.0345486
0.000748413
1.89768e-05
1.0127e-05
1.00256e-05
1.00244e-05
1.00348e-05
1.00329e-05
1.00275e-05
1.00164e-05
1.00284e-05
1.00277e-05
1.00255e-05
1.00179e-05
1.00153e-05
1.00198e-05
1.00039e-05
1.00114e-05
1.00478e-05
1.00195e-05
1.00318e-05
1.00325e-05
1.00303e-05
1.00295e-05
1.00404e-05
1.00335e-05
1.00385e-05
1.00331e-05
1.00413e-05
1.00294e-05
1.00327e-05
1.00361e-05
1.00271e-05
1.00403e-05
1.01276e-05
1.97552e-05
0.000806368
0.036246
0.47763
1.82609
3.40149
4.87074
6.63165
5.91385
5.90499
6.62197
4.89185
3.46684
1.93808
0.556578
0.0499614
0.00122123
2.50986e-05
1.01922e-05
1.00259e-05
1.00265e-05
1.00346e-05
1.00357e-05
1.00269e-05
1.00185e-05
1.00282e-05
1.00293e-05
1.00251e-05
1.00194e-05
1.00173e-05
1.00193e-05
1.00038e-05
1.00115e-05
1.00498e-05
1.00194e-05
1.00315e-05
1.00343e-05
1.00302e-05
1.00312e-05
1.004e-05
1.00354e-05
1.00381e-05
1.00351e-05
1.00408e-05
1.00318e-05
1.00324e-05
1.0038e-05
1.00272e-05
1.00416e-05
1.01666e-05
2.34336e-05
0.00109513
0.0475347
0.554935
1.93746
3.46655
4.8922
6.62325
5.905
5.89698
6.61482
4.91002
3.52423
2.0388
0.633367
0.0606118
0.00159988
3.04703e-05
1.0249e-05
1.00286e-05
1.00266e-05
1.00364e-05
1.00354e-05
1.00283e-05
1.00186e-05
1.00298e-05
1.00291e-05
1.00265e-05
1.00193e-05
1.00187e-05
1.00206e-05
1.00037e-05
1.00116e-05
1.00511e-05
1.00193e-05
1.00331e-05
1.00341e-05
1.00319e-05
1.00311e-05
1.00415e-05
1.00354e-05
1.00398e-05
1.0035e-05
1.00424e-05
1.00336e-05
1.00342e-05
1.00395e-05
1.00274e-05
1.00441e-05
1.02622e-05
3.21208e-05
0.00171984
0.063034
0.635249
2.03982
3.5247
4.90975
6.6135
5.8964
5.88861
6.60347
4.9248
3.57753
2.13318
0.715488
0.0818851
0.00246916
4.31641e-05
1.03871e-05
1.00295e-05
1.00286e-05
1.00362e-05
1.00369e-05
1.00277e-05
1.00205e-05
1.00296e-05
1.00306e-05
1.00261e-05
1.00191e-05
1.00205e-05
1.00202e-05
1.00036e-05
1.00117e-05
1.0053e-05
1.00192e-05
1.00327e-05
1.00339e-05
1.00317e-05
1.00327e-05
1.00411e-05
1.00372e-05
1.00395e-05
1.00368e-05
1.0042e-05
1.00359e-05
1.0034e-05
1.00413e-05
1.00276e-05
1.00456e-05
1.03438e-05
3.96416e-05
0.00224745
0.079369
0.71405
2.13271
3.5774
4.92527
6.60476
5.88844
5.88148
6.59654
4.93851
3.62462
2.21713
0.791492
0.0971811
0.00313352
5.37141e-05
1.05043e-05
1.0033e-05
1.00286e-05
1.00379e-05
1.00366e-05
1.0029e-05
1.00206e-05
1.00312e-05
1.00304e-05
1.00275e-05
1.00206e-05
1.00217e-05
1.00214e-05
1.00036e-05
1.00118e-05
1.00542e-05
1.00192e-05
1.00342e-05
1.00336e-05
1.00333e-05
1.00325e-05
1.00425e-05
1.00371e-05
1.0041e-05
1.00368e-05
1.00435e-05
1.00375e-05
1.00358e-05
1.00426e-05
1.0028e-05
1.00489e-05
1.05363e-05
5.71895e-05
0.00336694
0.0997649
0.793387
2.21822
3.62513
4.93829
6.59534
5.88067
5.87392
6.5855
4.94949
3.66917
2.29628
0.871038
0.12337
0.00459997
7.79885e-05
1.07788e-05
1.00347e-05
1.00305e-05
1.00376e-05
1.00381e-05
1.00286e-05
1.00218e-05
1.0031e-05
1.00318e-05
1.00273e-05
1.00205e-05
1.00235e-05
1.00209e-05
1.00035e-05
1.0012e-05
1.0056e-05
1.00191e-05
1.00339e-05
1.00335e-05
1.00331e-05
1.00341e-05
1.00421e-05
1.00388e-05
1.00408e-05
1.00384e-05
1.00431e-05
1.00397e-05
1.00357e-05
1.00443e-05
1.00282e-05
1.00511e-05
1.06965e-05
7.13421e-05
0.00424089
0.121059
0.869963
2.29606
3.66932
4.95016
6.58684
5.87339
5.86754
6.57918
4.96062
3.70823
2.36596
0.944671
0.143497
0.00566371
9.68774e-05
1.09977e-05
1.00396e-05
1.00305e-05
1.00392e-05
1.00377e-05
1.00298e-05
1.00231e-05
1.00325e-05
1.00316e-05
1.00267e-05
1.00219e-05
1.00246e-05
1.0022e-05
1.00034e-05
1.00121e-05
1.00571e-05
1.00191e-05
1.00353e-05
1.00332e-05
1.00346e-05
1.00339e-05
1.00435e-05
1.00387e-05
1.00422e-05
1.00384e-05
1.00445e-05
1.00411e-05
1.00373e-05
1.00454e-05
1.00286e-05
1.00561e-05
1.10692e-05
0.000103744
0.00606968
0.146022
0.946752
2.3672
3.70884
4.96051
6.57812
5.8663
5.86085
6.56881
4.96899
3.74373
2.43129
1.02277
0.173927
0.00794901
0.000139807
1.1501e-05
1.00432e-05
1.00323e-05
1.0039e-05
1.00391e-05
1.00294e-05
1.00252e-05
1.00323e-05
1.00322e-05
1.0028e-05
1.00219e-05
1.00262e-05
1.00216e-05
1.00034e-05
1.00123e-05
1.00587e-05
1.00191e-05
1.0035e-05
1.00346e-05
1.00344e-05
1.00353e-05
1.00431e-05
1.00403e-05
1.0042e-05
1.004e-05
1.00442e-05
1.00431e-05
1.00373e-05
1.0047e-05
1.00289e-05
1.00596e-05
1.13598e-05
0.000128415
0.00740449
0.171898
1.02228
2.43151
3.74429
4.97001
6.57027
5.85962
5.85503
6.5633
4.97827
3.77542
2.48882
1.09389
0.198522
0.00952561
0.000171586
1.18845e-05
1.00493e-05
1.00323e-05
1.00405e-05
1.00388e-05
1.00307e-05
1.00263e-05
1.00322e-05
1.00342e-05
1.00277e-05
1.00233e-05
1.00272e-05
1.00226e-05
1.00033e-05
1.00124e-05
1.00597e-05
1.00191e-05
1.00363e-05
1.00345e-05
1.00358e-05
1.00352e-05
1.00444e-05
1.00402e-05
1.00434e-05
1.00399e-05
1.00456e-05
1.00443e-05
1.00389e-05
1.0048e-05
1.00311e-05
1.00676e-05
1.20253e-05
0.000184246
0.010171
0.201117
1.0964
2.4904
3.77631
4.97839
6.56243
5.8531
5.84946
6.55369
4.98467
3.80417
2.54297
1.16817
0.232633
0.012853
0.000243072
1.27543e-05
1.00584e-05
1.0034e-05
1.00403e-05
1.004e-05
1.00304e-05
1.00282e-05
1.00321e-05
1.0034e-05
1.00288e-05
1.00232e-05
1.00287e-05
1.00221e-05
1.00033e-05
1.00126e-05
1.00613e-05
1.0019e-05
1.0036e-05
1.00358e-05
1.00356e-05
1.00365e-05
1.00441e-05
1.00416e-05
1.00431e-05
1.00409e-05
1.00453e-05
1.00462e-05
1.00389e-05
1.00496e-05
1.00313e-05
1.00733e-05
1.2523e-05
0.000224793
0.012082
0.231062
1.16865
2.54391
3.80534
4.98622
6.55535
5.84691
5.84384
6.54904
4.99265
3.83034
2.59101
1.23499
0.260983
0.0150463
0.00029371
1.33907e-05
1.00662e-05
1.00341e-05
1.00417e-05
1.00397e-05
1.00317e-05
1.00291e-05
1.00319e-05
1.00352e-05
1.00285e-05
1.00245e-05
1.00296e-05
1.00231e-05
1.00032e-05
1.00127e-05
1.00622e-05
1.0019e-05
1.00372e-05
1.00356e-05
1.00369e-05
1.00364e-05
1.00453e-05
1.00415e-05
1.00445e-05
1.00418e-05
1.00465e-05
1.00472e-05
1.00406e-05
1.00504e-05
1.00335e-05
1.00868e-05
1.36477e-05
0.00031566
0.0160127
0.263898
1.23831
2.59325
3.83177
4.99322
6.54838
5.84083
5.83965
6.54023
4.99755
3.85385
2.63635
1.3037
0.297865
0.0196176
0.000406539
1.48161e-05
1.00817e-05
1.00358e-05
1.00415e-05
1.00408e-05
1.00315e-05
1.00309e-05
1.00333e-05
1.0035e-05
1.00296e-05
1.00245e-05
1.00311e-05
1.00226e-05
1.00032e-05
1.0013e-05
1.00636e-05
1.0019e-05
1.00369e-05
1.00369e-05
1.00367e-05
1.00377e-05
1.0045e-05
1.00429e-05
1.00442e-05
1.00442e-05
1.00463e-05
1.0049e-05
1.00406e-05
1.00519e-05
1.00338e-05
1.00948e-05
1.44595e-05
0.000379052
0.0186047
0.297085
1.30568
2.63845
3.856
4.99989
6.54215
5.83499
5.83416
6.53622
5.00452
3.87579
2.67749
1.36413
0.328663
0.0224976
0.000483297
1.58224e-05
1.00936e-05
1.00359e-05
1.00414e-05
1.00405e-05
1.00327e-05
1.00317e-05
1.00332e-05
1.00361e-05
1.00293e-05
1.00258e-05
1.00319e-05
1.00235e-05
1.00032e-05
1.00131e-05
1.00645e-05
1.0019e-05
1.0038e-05
1.00368e-05
1.00379e-05
1.00375e-05
1.00461e-05
1.00428e-05
1.00455e-05
1.0044e-05
1.00475e-05
1.00499e-05
1.00421e-05
1.00527e-05
1.00359e-05
1.0114e-05
1.62693e-05
0.000517743
0.0237041
0.332347
1.36888
2.68094
3.87821
5.0059
6.53598
5.82919
5.83147
6.52828
5.00821
3.89512
2.71692
1.42401
0.366173
0.028429
0.000652733
1.80546e-05
1.0118e-05
1.00375e-05
1.00411e-05
1.00416e-05
1.00326e-05
1.00334e-05
1.00344e-05
1.00359e-05
1.00304e-05
1.00258e-05
1.00332e-05
1.00231e-05
1.00031e-05
1.00134e-05
1.00659e-05
1.0019e-05
1.00378e-05
1.0038e-05
1.00378e-05
1.00387e-05
1.00458e-05
1.00441e-05
1.00453e-05
1.00453e-05
1.00473e-05
1.0052e-05
1.00422e-05
1.00545e-05
1.00362e-05
1.01289e-05
1.75368e-05
0.000613549
0.0274244
0.366717
1.42814
2.72093
3.89879
5.01174
6.5306
5.82354
5.82636
6.52475
5.01416
3.91374
2.75292
1.47673
0.397421
0.0319898
0.000763475
1.95773e-05
1.01356e-05
1.00376e-05
1.00423e-05
1.00412e-05
1.00338e-05
1.00342e-05
1.00343e-05
1.0037e-05
1.00301e-05
1.0027e-05
1.0034e-05
1.00238e-05
1.00031e-05
1.00136e-05
1.00667e-05
1.0019e-05
1.00388e-05
1.00378e-05
1.00389e-05
1.00386e-05
1.00469e-05
1.0044e-05
1.00465e-05
1.00452e-05
1.00485e-05
1.00517e-05
1.00437e-05
1.00542e-05
1.00383e-05
1.01533e-05
2.034e-05
0.00081835
0.0335635
0.402658
1.48392
2.7584
3.9178
5.01694
6.52517
5.81783
5.82503
6.5176
5.01694
3.92925
2.78685
1.5291
0.434565
0.0390543
0.00100318
2.29216e-05
1.01725e-05
1.00393e-05
1.00422e-05
1.00422e-05
1.00337e-05
1.00361e-05
1.00355e-05
1.00367e-05
1.00311e-05
1.0027e-05
1.00353e-05
1.00234e-05
1.00031e-05
1.00139e-05
1.00679e-05
1.00191e-05
1.00386e-05
1.00389e-05
1.00388e-05
1.00397e-05
1.00467e-05
1.00452e-05
1.00463e-05
1.00464e-05
1.00483e-05
1.00529e-05
1.00437e-05
1.00547e-05
1.00386e-05
1.01864e-05
2.22575e-05
0.000956097
0.0384373
0.437428
1.53652
2.79374
3.93529
5.02222
6.52062
5.81215
5.82077
6.51443
5.02184
3.94445
2.81796
1.57519
0.465392
0.0436328
0.00115636
2.51255e-05
1.01979e-05
1.00396e-05
1.00433e-05
1.00419e-05
1.00349e-05
1.00359e-05
1.00354e-05
1.00377e-05
1.00309e-05
1.00282e-05
1.00359e-05
1.00237e-05
1.00031e-05
1.00141e-05
1.00687e-05
1.00191e-05
1.00396e-05
1.00388e-05
1.00398e-05
1.00396e-05
1.00477e-05
1.00451e-05
1.00474e-05
1.00463e-05
1.00494e-05
1.00528e-05
1.00451e-05
1.0056e-05
1.00407e-05
1.02149e-05
2.60858e-05
0.00124592
0.0456155
0.473484
1.58623
2.82668
3.95112
5.02691
6.51583
5.8063
5.82046
6.50781
5.02385
3.95651
2.84671
1.62091
0.501419
0.0514663
0.0014809
2.99235e-05
1.02514e-05
1.00406e-05
1.00432e-05
1.00429e-05
1.00348e-05
1.0037e-05
1.00365e-05
1.00376e-05
1.00318e-05
1.00282e-05
1.00371e-05
1.00248e-05
1.00031e-05
1.00145e-05
1.00699e-05
1.00191e-05
1.00394e-05
1.00399e-05
1.00397e-05
1.00406e-05
1.00474e-05
1.00456e-05
1.00472e-05
1.00474e-05
1.00492e-05
1.00525e-05
1.00451e-05
1.00556e-05
1.00412e-05
1.02706e-05
2.96658e-05
0.00143552
0.0516271
0.508179
1.63322
2.85788
3.96608
5.03173
6.51195
5.80032
5.81788
6.50492
5.02735
3.96919
2.8735
1.66112
0.531103
0.0570485
0.0016825
3.2993e-05
1.02869e-05
1.00432e-05
1.00443e-05
1.00426e-05
1.00359e-05
1.00368e-05
1.00364e-05
1.00373e-05
1.00316e-05
1.00293e-05
1.00378e-05
1.00243e-05
1.00031e-05
1.00148e-05
1.00706e-05
1.00191e-05
1.00404e-05
1.00398e-05
1.00407e-05
1.00405e-05
1.00484e-05
1.00473e-05
1.00483e-05
1.00473e-05
1.00502e-05
1.00536e-05
1.00464e-05
1.00565e-05
1.00432e-05
1.03107e-05
3.44364e-05
0.00183012
0.0598297
0.544055
1.67795
2.88716
3.97985
5.036
6.50774
5.794
5.81823
6.49865
5.02856
3.97839
2.89767
1.70087
0.565365
0.0654276
0.00210269
3.95957e-05
1.03613e-05
1.00436e-05
1.00441e-05
1.00435e-05
1.00358e-05
1.00378e-05
1.00374e-05
1.00382e-05
1.00324e-05
1.00293e-05
1.00389e-05
1.00246e-05
1.00031e-05
1.00153e-05
1.00716e-05
1.00197e-05
1.00402e-05
1.00408e-05
1.00405e-05
1.00415e-05
1.00482e-05
1.00472e-05
1.00481e-05
1.00472e-05
1.005e-05
1.00534e-05
1.00464e-05
1.00562e-05
1.00444e-05
1.03954e-05
4.04447e-05
0.00208205
0.0669536
0.578409
1.72027
2.91506
3.99313
5.0405
6.50441
5.78739
5.81806
6.49591
5.0311
3.98904
2.92064
1.73583
0.593289
0.0718222
0.00235559
4.36867e-05
1.04102e-05
1.00456e-05
1.00451e-05
1.00432e-05
1.00368e-05
1.00377e-05
1.00373e-05
1.0038e-05
1.00322e-05
1.00304e-05
1.00395e-05
1.00254e-05
1.00031e-05
1.00156e-05
1.00723e-05
1.0021e-05
1.00411e-05
1.00408e-05
1.00415e-05
1.00413e-05
1.00491e-05
1.00471e-05
1.00491e-05
1.00471e-05
1.0051e-05
1.00544e-05
1.00475e-05
1.00571e-05
1.00451e-05
1.04525e-05
4.63751e-05
0.00260254
0.0761647
0.613987
1.76096
2.94156
4.00558
5.04461
6.5008
5.78023
5.81989
6.48993
5.03147
3.99558
2.9407
1.77008
0.625154
0.0805218
0.00286237
5.20726e-05
1.05027e-05
1.00462e-05
1.0045e-05
1.00436e-05
1.00368e-05
1.00386e-05
1.00372e-05
1.00384e-05
1.0033e-05
1.00305e-05
1.00406e-05
1.00249e-05
1.00031e-05
1.00162e-05
1.00732e-05
1.00217e-05
1.00411e-05
1.00407e-05
1.00413e-05
1.00423e-05
1.00489e-05
1.0048e-05
1.0049e-05
1.00481e-05
1.00508e-05
1.00543e-05
1.00475e-05
1.0057e-05
1.00476e-05
1.05727e-05
5.5321e-05
0.00292832
0.0843922
0.647938
1.79949
2.96695
4.0178
5.04902
6.49794
5.77257
5.82147
6.48723
5.03252
4.00453
2.96021
1.80029
0.65079
0.0874853
0.00319236
5.78861e-05
1.05782e-05
1.00482e-05
1.00459e-05
1.00444e-05
1.00366e-05
1.00384e-05
1.00376e-05
1.00396e-05
1.00329e-05
1.00312e-05
1.00411e-05
1.00253e-05
1.00032e-05
1.00166e-05
1.00737e-05
1.00234e-05
1.00408e-05
1.00407e-05
1.00422e-05
1.00421e-05
1.00498e-05
1.00479e-05
1.00499e-05
1.0048e-05
1.00517e-05
1.00541e-05
1.00475e-05
1.00566e-05
1.00486e-05
1.06542e-05
6.27483e-05
0.0035981
0.094611
0.683235
1.83696
2.99149
4.02952
5.05322
6.49499
5.76415
5.8253
6.48181
5.03213
4.0088
2.97651
1.82939
0.679648
0.0962264
0.00376045
6.76447e-05
1.06868e-05
1.00496e-05
1.00458e-05
1.00452e-05
1.00371e-05
1.00393e-05
1.00387e-05
1.00394e-05
1.00336e-05
1.00319e-05
1.00421e-05
1.00248e-05
1.00032e-05
1.00174e-05
1.00745e-05
1.00236e-05
1.00412e-05
1.00405e-05
1.0042e-05
1.0043e-05
1.00497e-05
1.00489e-05
1.00498e-05
1.00489e-05
1.00516e-05
1.0055e-05
1.00485e-05
1.00572e-05
1.00507e-05
1.08426e-05
7.54434e-05
0.00401128
0.103978
0.717039
1.87244
3.01519
4.04123
5.05784
6.49262
5.75496
5.82901
6.47826
5.03187
4.01574
2.99281
1.85509
0.702707
0.103472
0.00417706
7.58955e-05
1.07883e-05
1.00504e-05
1.00467e-05
1.00459e-05
1.00382e-05
1.00392e-05
1.00393e-05
1.00401e-05
1.00335e-05
1.00336e-05
1.00426e-05
1.0025e-05
1.00033e-05
1.00178e-05
1.00749e-05
1.00236e-05
1.00422e-05
1.00404e-05
1.00425e-05
1.00429e-05
1.00501e-05
1.00488e-05
1.00502e-05
1.00488e-05
1.0052e-05
1.00549e-05
1.00485e-05
1.0057e-05
1.00527e-05
1.09498e-05
8.4793e-05
0.00485784
0.115252
0.752369
1.90722
3.03845
4.05271
5.06237
6.49037
5.74478
5.83526
6.47371
5.03087
4.01837
3.00568
1.87883
0.728259
0.111941
0.00478773
8.68074e-05
1.09169e-05
1.00531e-05
1.00466e-05
1.00467e-05
1.00388e-05
1.00391e-05
1.00407e-05
1.00399e-05
1.00342e-05
1.00337e-05
1.00435e-05
1.00254e-05
1.00034e-05
1.00188e-05
1.00755e-05
1.00238e-05
1.00427e-05
1.004e-05
1.0043e-05
1.00437e-05
1.0051e-05
1.00496e-05
1.00512e-05
1.00497e-05
1.0053e-05
1.00557e-05
1.00492e-05
1.00579e-05
1.00572e-05
1.11797e-05
0.000102286
0.00537607
0.125861
0.78632
1.94045
3.0612
4.06443
5.06754
6.48858
5.73353
5.84155
6.46938
5.02924
4.02276
3.01876
1.90014
0.748597
0.119168
0.00527236
9.72604e-05
1.10413e-05
1.00541e-05
1.00466e-05
1.00474e-05
1.00399e-05
1.00399e-05
1.00406e-05
1.00395e-05
1.00341e-05
1.00338e-05
1.00439e-05
1.00248e-05
1.00035e-05
1.00194e-05
1.00757e-05
1.00239e-05
1.0044e-05
1.00397e-05
1.00443e-05
1.00436e-05
1.00516e-05
1.00495e-05
1.00518e-05
1.00497e-05
1.00536e-05
1.00556e-05
1.00498e-05
1.00578e-05
1.00588e-05
1.13212e-05
0.000114238
0.00642069
0.138318
0.821865
1.97342
3.08383
4.07612
5.07263
6.48707
5.72102
5.84915
6.46523
5.02746
4.02425
3.02841
1.91875
0.770173
0.12703
0.00590854
0.000109258
1.11907e-05
1.0057e-05
1.00464e-05
1.00481e-05
1.00405e-05
1.00398e-05
1.00405e-05
1.00401e-05
1.00339e-05
1.00339e-05
1.00447e-05
1.00249e-05
1.00036e-05
1.00211e-05
1.00761e-05
1.00242e-05
1.00439e-05
1.00399e-05
1.00441e-05
1.00444e-05
1.00527e-05
1.00504e-05
1.00529e-05
1.00496e-05
1.00547e-05
1.00565e-05
1.00513e-05
1.00587e-05
1.00623e-05
1.1622e-05
0.000137696
0.0070963
0.150332
0.856208
2.00528
3.10626
4.08829
5.07867
6.4859
5.70712
5.85783
6.46042
5.0238
4.0258
3.03808
1.93579
0.787434
0.133899
0.00643412
0.000121478
1.13327e-05
1.00581e-05
1.00473e-05
1.00488e-05
1.00415e-05
1.00406e-05
1.00404e-05
1.00398e-05
1.00346e-05
1.00341e-05
1.00451e-05