/*--------------------------------*- C++ -*----------------------------------*\
| =========                 |                                                 |
| \\      /  F ield         | OpenFOAM: The Open Source CFD Toolbox           |
|  \\    /   O peration     | Version:  2.1.0                                 |
|   \\  /    A nd           | Web:      www.OpenFOAM.org                      |
|    \\/     M anipulation  |                                                 |
\*---------------------------------------------------------------------------*/
FoamFile
{
    version     2.0;
    format      ascii;
    class       volScalarField;
    location    "5000";
    object      omega;
}
// * * * * * * * * * * * * * * * * * * * * * * * * * * * * * * * * * * * * * //

dimensions      [0 0 -1 0 0 0 0];

internalField   nonuniform List<scalar> 
15000
(
57589.2
16641.8
2838.52
429.647
7.07544
1.70834
1.13395
1.12271
1.0017
0.999982
0.999965
0.999959
0.999961
0.999963
0.99997
0.999996
0.999977
0.999969
0.999971
0.99997
0.999962
0.999982
0.999962
0.999964
1.00008
1.02336
1.01069
1.01055
1.02675
1.02831
1.0146
1.03036
1.03237
1.02025
1.02264
1.03742
1.04128
1.03168
1.03554
1.04953
1.04409
1.0507
1.08115
1.10084
1.05677
22.9283
426.875
2852.62
16655
57587.6
63070.1
24845.1
7031.15
981.467
64.5761
1.76384
1.24732
1.1187
1.00097
0.999517
0.999731
1.00027
1.02734
0.999681
0.999807
0.999904
0.999775
0.999783
0.999808
0.999798
0.999638
0.99981
1.0002
1.02923
1.02647
1.05834
1.0896
1.09118
1.08812
1.09216
1.10308
1.10222
1.10751
1.12019
1.12703
1.13054
1.14022
1.15493
1.16462
1.1681
1.17556
1.19105
1.16532
1.29258
4.1233
63.7233
982.565
7038.95
24852
63070.1
60047.3
26087.5
9396.91
1955.77
171.495
9.30898
1.5424
1.11919
1.02814
1.04729
1.02419
1.0322
1.12418
1.02827
1.01781
1.00004
1.02064
1.02154
1.01895
1.02023
1.04168
1.0186
1.00111
1.10267
1.09725
1.13047
1.08728
1.08879
1.09118
1.09553
1.10128
1.10505
1.11003
1.11821
1.12517
1.13253
1.14291
1.15312
1.16326
1.17086
1.17526
1.19062
1.23467
1.29003
6.34475
165.51
1969.66
9406.02
26089.2
60054.9
55435.1
25648.6
10727.2
2852.64
352.83
14.6605
1.69905
1.11818
1.09756
1.04876
1.09085
1.09848
1.12338
1.08786
1.0833
1.04337
1.07499
1.07437
1.07322
1.0708
1.04247
1.06814
1.02552
1.10241
1.09732
1.1304
1.08651
1.08787
1.09113
1.09556
1.10034
1.10495
1.10983
1.11724
1.12421
1.13205
1.14204
1.15219
1.16263
1.17019
1.18971
1.19055
1.25294
1.77814
22.9945
357.325
2852.42
10731
25648.1
55442
51502.9
24728
11635.2
3673.08
549.933
41.1262
2.90695
1.14543
1.14631
1.05209
1.09093
1.10035
1.12075
1.08746
1.08212
1.06345
1.07473
1.07422
1.07292
1.06971
1.04371
1.06739
1.04582
1.10191
1.09762
1.13047
1.11705
1.11873
1.12155
1.12506
1.13101
1.13603
1.14238
1.14978
1.15801
1.16685
1.17795
1.18912
1.18718
1.21734
1.24427
1.19379
1.27347
1.92653
32.387
547.271
3684.4
11637.3
24724.5
51507.5
48500.9
24039.2
12323.9
4493.9
795.576
55.4127
3.45859
1.15219
1.25835
1.05416
1.11146
1.10095
1.11958
1.11324
1.1237
1.12789
1.1027
1.08771
1.1027
1.09425
1.04432
1.0811
1.09296
1.10164
1.09745
1.12995
1.11682
1.11853
1.12137
1.12489
1.13069
1.1358
1.14214
1.14931
1.15752
1.16641
1.17741
1.1885
1.21641
1.21741
1.25347
1.19554
1.33505
3.67332
68.926
800.372
4492.54
12323.1
24035
48503.1
46267.2
23766.8
12989.3
5311.88
1079.97
102.867
6.34151
1.23701
1.3212
1.06356
1.15979
1.10425
1.1627
1.1136
1.1236
1.12659
1.10327
1.12767
1.10226
1.09335
1.04696
1.11602
1.09369
1.12109
1.09824
1.14376
1.13272
1.1347
1.13288
1.1464
1.14235
1.15861
1.15595
1.17343
1.17218
1.16657
1.19062
1.18872
1.24824
1.21904
1.2854
1.20313
1.36769
4.52383
90.5653
1079.69
5318.44
12988.7
23763.9
46268.1
44591.5
23433.4
13482.5
6171.65
1424.45
132.668
7.61335
1.26849
1.45402
1.06847
1.18732
1.1068
1.17545
1.11495
1.14904
1.12674
1.12803
1.12745
1.12539
1.09032
1.04839
1.11507
1.09421
1.13576
1.10974
1.16008
1.1461
1.14804
1.16426
1.14664
1.1747
1.15889
1.17845
1.1736
1.19522
1.16749
1.21682
1.18992
1.26308
1.22062
1.2886
1.2064
1.50067
8.44405
146.075
1427.74
6169.52
13480.9
23431.3
44591.4
43286.4
22934.4
13769.6
6988.45
1850.97
208.105
12.5696
1.45615
1.51084
1.0842
1.2406
1.11479
1.2233
1.11821
1.16079
1.12684
1.12846
1.14942
1.12462
1.1071
1.05202
1.13179
1.09561
1.17214
1.13914
1.18399
1.17782
1.18022
1.1646
1.16519
1.17428
1.17857
1.19849
1.17467
1.21689
1.17015
1.23357
1.19329
1.28256
1.22529
1.30878
1.2175
1.55813
10.8569
198.293
1851.88
6991.58
13769.2
22934.5
43286.1
42228.3
22301.9
13762
7695.1
2346.19
279.386
16.0853
1.57276
1.64343
1.09175
1.26654
1.11914
1.23379
1.12123
1.19112
1.12826
1.14956
1.14918
1.14374
1.10479
1.05365
1.13051
1.09726
1.17172
1.15046
1.19632
1.178
1.18003
1.16489
1.1651
1.19128
1.17882
1.21778
1.17592
1.23316
1.17312
1.252
1.19572
1.29044
1.22761
1.31061
1.22153
1.77815
18.137
289.084
2347.67
7693.33
13761
22300.3
42227.6
41336.5
21648.8
13644.3
8262.68
2899.83
403.598
26.0726
1.95274
1.63124
1.1119
1.31447
1.1304
1.27393
1.12731
1.2006
1.12884
1.15012
1.16792
1.14284
1.11845
1.05753
1.14429
1.0987
1.17128
1.17631
1.22212
1.17819
1.19565
1.16523
1.17998
1.19097
1.19583
1.23155
1.19689
1.24912
1.17753
1.2627
1.20066
1.30298
1.23334
1.32865
1.29993
1.90789
23.7856
397.481
2901.53
8263.56
13643.9
21649.8
41336
40614.8
21037
13366.5
8659.71
3486.36
548.695
34.7283
2.21799
1.60321
1.12032
1.33512
1.13593
1.28271
1.13107
1.22438
1.13149
1.16926
1.16766
1.15913
1.116
1.05928
1.14281
1.10016
1.1712
1.18666
1.2219
1.19305
1.19549
1.18052
1.17991
1.19868
1.19589
1.24944
1.19843
1.26266
1.18161
1.27628
1.20373
1.30792
1.23593
1.32599
1.35446
2.37188
37.691
555.242
3486.29
8658.45
13365.3
21035.3
40613.9
39890.7
20463.1
12939
8882.76
4057.83
752.619
56.0831
3.02739
1.5849
1.14593
1.38032
1.14909
1.31632
1.1389
1.23225
1.13256
1.16973
1.18379
1.15813
1.12733
1.06322
1.1544
1.10123
1.17142
1.20809
1.22168
1.19315
1.209
1.18084
1.19277
1.21265
1.21089
1.25804
1.21783
1.27432
1.18684
1.28369
1.20955
1.31715
1.24187
1.3224
1.438
2.79678
52.4576
749.072
4059.8
8882.88
12939.5
20464.5
39890.5
39276.7
19940.1
12480.2
8971.7
4603.99
987.022
75.3669
3.73524
1.56617
1.16631
1.37362
1.15506
1.32311
1.14284
1.25429
1.1361
1.18718
1.18344
1.17214
1.12484
1.065
1.15277
1.10217
1.1718
1.21762
1.22143
1.20583
1.20885
1.19413
1.19275
1.22622
1.21131
1.27699
1.21952
1.28616
1.19136
1.29425
1.21273
1.32106
1.24418
1.31672
1.48657
3.94864
79.1446
991.126
4603.2
8971.03
12479.6
19938.4
39276
38734.4
19445.7
12074.9
8961.36
5085.83
1276.1
119.22
5.67024
1.56923
1.19413
1.36358
1.18111
1.34545
1.17378
1.24866
1.13766
1.18737
1.19742
1.17105
1.13436
1.0689
1.16264
1.10319
1.17264
1.23532
1.22144
1.20582
1.22067
1.19442
1.20422
1.23696
1.22534
1.27479
1.23744
1.2943
1.19709
1.29965
1.21896
1.33064
1.2744
1.3139
1.52413
5.11803
112.941
1274.42
5087.92
8960.9
12074.7
19447.5
38734.3
38244.5
18991.8
11741.7
8914.57
5515.9
1592.08
156.722
7.44889
1.58239
1.20986
1.35453
1.18683
1.36158
1.17679
1.2608
1.14138
1.20327
1.19701
1.18335
1.1319
1.07066
1.16094
1.10414
1.1732
1.24407
1.22135
1.21681
1.22051
1.20619
1.20424
1.24926
1.22592
1.28397
1.23874
1.30551
1.20159
1.30846
1.22187
1.32787
1.29196
1.31396
1.5876
7.89452
162.904
1594.09
5514.53
8914.24
11741.4
18989.7
38243.8
37797.4
18570.6
11455.4
8816.32
5857.43
1949.39
237.922
11.9632
1.63466
1.23569
1.3467
1.21027
1.35385
1.20149
1.25558
1.14407
1.20323
1.20931
1.1822
1.14004
1.07448
1.1695
1.10511
1.17432
1.25911
1.22157
1.21677
1.23105
1.20644
1.21469
1.25727
1.23901
1.28217
1.25456
1.31118
1.20765
1.31259
1.23653
1.32329
1.32964
1.31543
1.63803
10.7178
227.071
1949.3
5859.7
8815.66
11455
18572.6
37797.3
37385.8
18189.6
11199.5
8679.98
6119.06
2310.54
305.048
16.048
1.6977
1.24865
1.34126
1.21476
1.36165
1.20833
1.26589
1.14714
1.21767
1.20885
1.19313
1.13766
1.0761
1.16865
1.10606
1.17505
1.26713
1.2215
1.22649
1.23091
1.21699
1.21475
1.26881
1.23968
1.29048
1.25554
1.32408
1.21185
1.3224
1.26011
1.32
1.34221
1.31928
1.76098
17.0736
313.97
2310.76
6118.41
8680.34
11199.5
18187.5
37385.2
37004.2
17839.5
10974.6
8528.45
6294.38
2678.58
426.652
25.525
1.87638
1.2737
1.33497
1.23505
1.3558
1.23424
1.26118
1.15113
1.21748
1.21987
1.19194
1.14511
1.09148
1.16666
1.10698
1.17633
1.28026
1.22192
1.22639
1.24051
1.21721
1.22438
1.2745
1.25189
1.28903
1.26959
1.32142
1.21835
1.31795
1.27921
1.31757
1.37051
1.32281
1.88346
23.1362
418.245
2680.09
6295.37
8527.57
10974.2
17841.3
37004
36647.3
17525
10774.9
8358.59
6395.33
3029.44
540.151
33.8399
2.0732
1.28642
1.33235
1.23858
1.36346
1.23989
1.27
1.15342
1.23064
1.21937
1.2017
1.14314
1.0927
1.16568
1.10786
1.17723
1.28759
1.22186
1.23504
1.24038
1.22674
1.22447
1.2875
1.25263
1.29673
1.27029
1.32846
1.22146
1.32383
1.29745
1.31559
1.37961
1.33081
2.19588
36.4081
547.463
3028.46
6394.92
8359.15
10775
17523.1
36646.7
36311.4
17234.2
10589.8
8209.3
6452.26
3355.92
697.858
52.1213
2.58436
1.31277
1.32692
1.25642
1.35905
1.26247
1.26605
1.16523
1.23027
1.2293
1.2005
1.14992
1.10333
1.16333
1.10874
1.17863
1.29925
1.22247
1.23487
1.24915
1.22694
1.23339
1.28608
1.26402
1.29557
1.28272
1.32631
1.23374
1.32146
1.313
1.3157
1.40041
1.33699
2.51989
47.7144
691.327
3358.28
6452.73
8208.26
10589.5
17235.9
36311.5
35995.5
16972.1
10416.2
8069.03
6470.56
3656.6
850.867
66.6997
3.09261
1.32676
1.33929
1.25926
1.36656
1.26723
1.2739
1.16731
1.24242
1.22877
1.20926
1.14836
1.11005
1.17045
1.10955
1.17965
1.30592
1.22241
1.24265
1.24902
1.23562
1.23347
1.29275
1.26458
1.30279
1.28321
1.33323
1.24959
1.31903
1.32723
1.31624
1.4069
1.35153
3.32424
71.7075
856.823
3655.01
6470.52
8069.86
10416.2
16970.2
35994.5
35694.8
16727.8
10257.7
7939.4
6463.12
3921
1037.09
97.9085
4.33532
1.35699
1.33692
1.27526
1.36376
1.28689
1.27033
1.17825
1.24202
1.23778
1.20807
1.15488
1.12507
1.16917
1.11045
1.18114
1.31638
1.22317
1.24243
1.25707
1.2358
1.2417
1.29148
1.27483
1.30187
1.29427
1.33156
1.26541
1.31585
1.33992
1.31714
1.42285
1.36355
4.08159
90.7527
1032.14
3923.59
6463.11
7938.22
10257.5
16729.5
35695.1
35411.1
16508.3
10109.7
7814.46
6441.63
4157.6
1218.38
120.648
5.42407
1.37795
1.3477
1.27759
1.37156
1.29076
1.27718
1.18015
1.25322
1.23722
1.21575
1.15398
1.13102
1.17562
1.11121
1.18223
1.32241
1.22312
1.24948
1.25693
1.24372
1.24177
1.29761
1.27524
1.30867
1.29459
1.33833
1.27844
1.31464
1.35154
1.31908
1.42791
1.39196
5.81884
126.917
1223
4156.1
6442.13
7815.53
10109.9
16506.5
35410
35139.6
16301.7
9973.24
7701.85
6403.47
4349.56
1421.15
168.64
7.96465
1.42878
1.34527
1.2921
1.36993
1.30782
1.27393
1.19031
1.25278
1.24541
1.21435
1.16048
1.14437
1.17439
1.11212
1.1838
1.33182
1.22399
1.24922
1.26433
1.24388
1.24936
1.29649
1.28447
1.30792
1.30445
1.33701
1.29224
1.31242
1.36222
1.32043
1.441
1.41565
7.32959
159.755
1417.59
4351.97
6402.72
7700.58
9972.92
16303.3
35139.9
34883.3
16115.2
9844
7590.91
6353.47
4514.93
1611.85
200.547
9.94303
1.45945
1.35446
1.29404
1.37801
1.31091
1.27987
1.19203
1.2631
1.24482
1.22101
1.16019
1.14964
1.18026
1.11283
1.18491
1.33724
1.22398
1.25563
1.26419
1.25114
1.24942
1.30216
1.28476
1.31432
1.30465
1.34355
1.30296
1.32014
1.37153
1.32314
1.44499
1.47092
10.6256
208.472
1615.27
4513.86
6354.3
7592.09
9844.31
16113.7
34882.1
34637.1
15937.7
9724.54
7491.78
6301.11
4641.46
1813.34
266.803
14.4374
1.54153
1.35282
1.30736
1.37675
1.32741
1.27692
1.20151
1.26265
1.25228
1.21946
1.16655
1.16153
1.17909
1.11375
1.18654
1.34574
1.22486
1.25534
1.27098
1.25129
1.25642
1.30116
1.29309
1.3137
1.31348
1.3425
1.31521
1.32005
1.38067
1.32481
1.45582
1.5173
13.24
256.004
1811.18
4643.36
6300.16
7490.5
9724.21
15939.2
34637.1
34404.3
15776.8
9610.78
7393.53
6241.09
4743.94
2001.07
307.623
17.6596
1.60429
1.36183
1.30897
1.38449
1.32605
1.28218
1.20307
1.27216
1.25166
1.2253
1.16675
1.16621
1.18446
1.11441
1.18765
1.35057
1.22491
1.26118
1.27091
1.25798
1.25646
1.30641
1.29329
1.31971
1.31359
1.34876
1.32401
1.32804
1.38766
1.32793
1.45831
1.63296
18.8012
317.551
2003.62
4743.54
6242.2
7394.83
9611.26
15775.6
34402.8
34180.2
15622.2
9505.79
7307.31
6183.4
4816.68
2191.54
388.504
24.7489
1.76141
1.36148
1.32123
1.38341
1.33804
1.27956
1.2119
1.27169
1.25847
1.22361
1.16688
1.17689
1.18335
1.11534
1.18933
1.35828
1.22581
1.26088
1.27073
1.25804
1.2629
1.30552
1.3008
1.31917
1.32147
1.34796
1.33499
1.32821
1.39569
1.32971
1.46541
1.72486
22.881
378.668
2190.63
4817.92
6182.32
7306.1
9505.51
15623.7
34179.8
33968.4
15481.9
9405.53
7221.45
6120.85
4870.66
2364.96
442.407
29.5939
1.88625
1.37059
1.32259
1.39079
1.33666
1.2843
1.21335
1.28048
1.25783
1.22898
1.17467
1.18108
1.18829
1.11595
1.19042
1.36258
1.2259
1.26621
1.27067
1.26407
1.26294
1.31038
1.30092
1.32478
1.32152
1.35389
1.34233
1.33617
1.40126
1.33302
1.46757
1.9393
31.4413
451.707
2367.06
4870.88
6122.29
7222.91
9406.22
15481.2
33966.3
33763.9
15346.2
9313.19
7147.79
6063.87
4905.35
2535.18
532.358
39.9516
2.18438
1.37148
1.33392
1.38985
1.34748
1.28188
1.21782
1.27999
1.26407
1.22822
1.17492
1.19066
1.18721
1.11689
1.19213
1.36959
1.2268
1.2659
1.27054
1.26406
1.26884
1.30959
1.30768
1.32431
1.32856
1.35328
1.35222
1.33654
1.40843
1.33477
1.47428
2.1117
37.2904
523.99
2535.44
4906.2
6062.74
7146.77
9313.15
15347.8
33762.5
33570.5
15222.7
9224.82
7072.35
6004.82
4927.3
2687.2
597.275
46.6744
2.41158
1.38165
1.33508
1.39694
1.34609
1.28649
1.23225
1.28819
1.26334
1.22616
1.18252
1.19438
1.19176
1.11746
1.1932
1.3734
1.22692
1.27078
1.27047
1.26943
1.26887
1.31407
1.30775
1.3295
1.32856
1.3588
1.35805
1.34434
1.41295
1.33822
1.47739
2.51315
49.4287
605.874
2689.34
4928.16
6006.65
7074.04
9225.8
15222.6
33567.3
33384
15102.5
9143.17
7006.01
5954.52
4941.15
2834.02
693.188
60.8085
2.93582
1.38447
1.34566
1.39612
1.35594
1.2846
1.2368
1.28791
1.26622
1.23087
1.18281
1.20305
1.19067
1.11839
1.19493
1.37981
1.22783
1.27046
1.2758
1.26943
1.27426
1.31337
1.31381
1.32909
1.33482
1.35823
1.367
1.34484
1.41942
1.33989
1.48291
2.8099
57.2732
686.3
2835.56
4942.07
5953.52
7005.31
9143.62
15104.8
33380.8
33206.9
14993.4
9064.91
6938.08
5900.2
4944.54
2963.88
765.72
69.5783
3.30965
1.39645
1.34666
1.403
1.35456
1.28915
1.25019
1.28745
1.27378
1.22969
1.19015
1.20642
1.19485
1.11892
1.19598
1.38316
1.22796
1.27491
1.27573
1.27432
1.27428
1.31746
1.31384
1.33384
1.33481
1.36324
1.37178
1.35224
1.42308
1.35036
1.48993
3.48162
73.4252
774.115
2966.75
4946.02
5902.53
6940.2
9066.38
14994
33202
33037.4
14885.9
8992.38
6879.17
5854.2
4942.55
3087.47
864.937
87.8148
4.14728
1.40203
1.35667
1.40227
1.36358
1.2878
1.25426
1.28722
1.27316
1.23425
1.19047
1.21442
1.19375
1.11984
1.19775
1.38906
1.22886
1.2746
1.28054
1.27432
1.27921
1.31682
1.31922
1.33352
1.3386
1.36261
1.37982
1.3528
1.42895
1.35189
1.49639
3.94712
83.408
859.916
3090.56
4944.17
5853.5
6878.99
8993.72
14889.4
33030.8
32874.2
14789.5
8922.99
6818.17
5803.07
4935.91
3195.3
941.951
98.7008
4.70743
1.41899
1.35755
1.40908
1.36204
1.29256
1.26623
1.28681
1.27769
1.2332
1.19763
1.2175
1.19765
1.12035
1.19877
1.392
1.22902
1.27867
1.28044
1.27874
1.27921
1.32052
1.31922
1.33775
1.3421
1.36713
1.38371
1.35962
1.43186
1.36129
1.51119
4.97266
103.568
950.901
3199.82
4938.86
5806.17
6821.01
8925.29
14790.8
32866.5
32720.9
14692
8858.27
6765.84
5760.88
4927.22
3297.27
1041.8
121.15
5.93581
1.42837
1.36729
1.40864
1.37034
1.29181
1.27006
1.29187
1.27709
1.23772
1.19796
1.225
1.19654
1.12127
1.2006
1.39748
1.22991
1.27836
1.28477
1.27872
1.28363
1.31994
1.3239
1.33745
1.35028
1.36674
1.39082
1.3602
1.43706
1.3627
1.51714
5.64994
116.368
1039.52
3302.45
4928.65
5760.8
6766.58
8860.98
14697.7
32709
32570.1
14606.8
8796.43
6710.85
5712.86
4910.07
3384.17
1120.39
134.097
6.71633
1.45254
1.36799
1.40818
1.36866
1.29691
1.28083
1.29169
1.28157
1.2368
1.2051
1.22785
1.20024
1.12175
1.20163
1.40003
1.23008
1.28209
1.28465
1.28266
1.28362
1.3232
1.32388
1.34112
1.35006
1.37073
1.39389
1.36627
1.43928
1.37096
1.53542
7.10023
139.599
1131.19
3391.29
4914.53
5716.99
6714.91
8800.24
14609.5
32557.5
32432
14517.6
8738.37
6663.99
5674.55
4897.01
3464.89
1218.06
160.488
8.40076
1.46704
1.37742
1.40723
1.37673
1.29665
1.28543
1.29674
1.28098
1.24141
1.20543
1.23509
1.19912
1.12266
1.20354
1.40522
1.23095
1.28181
1.28854
1.28263
1.28756
1.32268
1.3279
1.34087
1.354
1.37032
1.4011
1.36687
1.44442
1.37228
1.54677
8.0306
156.344
1220.05
3472.97
4899.77
5675.64
6666.2
8743.21
14526.4
32411.9
32293.1
14441.8
8682.63
6613.77
5629.85
4875.9
3532.26
1294.89
175.556
9.43039
1.5012
1.3781
1.41465
1.37497
1.30206
1.29201
1.29658
1.28561
1.24058
1.21278
1.23779
1.20274
1.12313
1.2046
1.40741
1.23114
1.28524
1.28841
1.28606
1.28754
1.32547
1.32786
1.34394
1.35376
1.37356
1.40069
1.37204
1.44294
1.37931
1.57354
9.98618
182.103
1309.68
3543.17
4882.43
5635.61
6619.75
8689.04
14447.4
32271.6
32168.9
14359.7
8630.3
6571.37
5594.9
4860.55
3595.08
1387.59
204.347
11.6104
1.52253
1.38793
1.41417
1.38326
1.30215
1.30358
1.30184
1.28503
1.24549
1.21311
1.24511
1.20159
1.12405
1.20665
1.41251
1.23199
1.285
1.29192
1.28601
1.29098
1.32501
1.33118
1.34374
1.35694
1.37319
1.4039
1.37255
1.44509
1.38053
1.59672
11.2062
202.466
1396.51
3607.08
4865.45
5597.87
6575.91
8638.35
14373.3
32136.4
32042
14291.7
8579.57
6525.09
5553.01
4837.27
3644.42
1461.98
222.885
12.9113
1.57035
1.3887
1.42233
1.38145
1.30842
1.3035
1.30167
1.2901
1.24475
1.22104
1.2478
1.20346
1.12453
1.20779
1.41437
1.23219
1.28826
1.2918
1.28895
1.29093
1.32732
1.33113
1.34617
1.35673
1.3756
1.40371
1.37655
1.44507
1.38619
1.6286
13.7389
230.581
1484
3660.57
4846.7
5561.26
6534.08
8590.19
14302.2
32005.7
31929.7
14215.7
8532.22
6486.59
5520.99
4820.79
3691.36
1548.86
252.63
15.6027
1.60045
1.39435
1.42187
1.39089
1.3085
1.31002
1.30743
1.28981
1.25031
1.22137
1.25574
1.20927
1.12548
1.21003
1.4197
1.23304
1.28807
1.29503
1.28886
1.29393
1.32693
1.33248
1.34596
1.35912
1.37528
1.40314
1.37695
1.44366
1.38736
1.67618
15.2853
254.223
1568.14
3709.18
4828.79
5526.87
6494.71
8545.14
14236.1
31879.2
31816
14153.7
8485.26
6443.71
5481.65
4796.28
3726.16
1618.69
273.923
17.2176
1.66678
1.41083
1.4314
1.38911
1.31559
1.30992
1.30719
1.28893
1.24968
1.23053
1.25861
1.20797
1.12598
1.21131
1.4213
1.23323
1.2914
1.2949
1.29149
1.29383
1.32883
1.33621
1.34781
1.35899
1.37683
1.40478
1.37966
1.44435
1.39104
1.71375
18.4653
284.501
1652.26
3749.71
4809.76
5493.62
6457.25
8502.4
14172.4
31756.3
31713.9
14083.3
8441.88
6408.62
5452.3
4779.4
3760.24
1698.05
304.043
20.2762
1.70782
1.41145
1.43098
1.4007
1.31567
1.31793
1.3139
1.29634
1.25645
1.23087
1.26793
1.21031
1.12696
1.21384
1.42747
1.23656
1.29127
1.29803
1.29133
1.29672
1.32851
1.33617
1.34768
1.35887
1.37655
1.40446
1.38
1.44329
1.39339
1.78881
20.3676
311.092
1732.56
3786.41
4791.77
5462.5
6422.06
8462.38
14113.2
31636.9
31614.3
14025.6
8398.37
6368.53
5415.17
4754.28
3783.56
1761.92
327.201
22.4472
1.79811
1.42555
1.44288
1.39888
1.32396
1.31779
1.31377
1.29562
1.25597
1.24232
1.27134
1.21794
1.1275
1.21532
1.42895
1.24141
1.2953
1.29784
1.29403
1.29657
1.33032
1.33607
1.3491
1.35861
1.37739
1.40522
1.38142
1.44317
1.3946
1.84253
24.2516
343.36
1812.79
3817.11
4773.28
5432.62
6388.76
8424.68
14056.6
31520.2
31523.6
13960.3
8358.13
6336.22
5388.25
4737.37
3807.08
1832.55
356.98
25.6587
1.85164
1.42625
1.44247
1.41147
1.3245
1.32833
1.31337
1.30043
1.26494
1.24271
1.28347
1.21638
1.12857
1.21829
1.43738
1.24594
1.29523
1.29754
1.29377
1.29996
1.33008
1.33816
1.34899
1.3601
1.37716
1.40508
1.38204
1.44265
1.39753
1.94886
26.5359
372.715
1888.91
3844.74
4755.84
5404.74
6357.53
8389.37
14003.9
31406.1
31435.8
13905.5
8316.86
6298.4
5353.01
4712.03
3821.41
1889.57
381.036
28.365
1.9708
1.44403
1.45837
1.41688
1.32448
1.32818
1.32688
1.31566
1.26457
1.25486
1.2879
1.22363
1.12917
1.22006
1.43895
1.25597
1.29507
1.29691
1.29731
1.29976
1.33264
1.33811
1.35065
1.35999
1.37788
1.40469
1.3823
1.44143
1.39892
2.02469
31.1883
406.869
1965.2
3868.13
4738.49
5378.27
6328.22
8356.46
13954
31293.9
31357.1
13844.8
8279.37
6268.66
5328.14
4695.32
3836.09
1950.61
409.675
31.6604
2.03758
1.44592
1.45805
1.43975
1.34401
1.34303
1.33424
1.31494
1.2774
1.26203
1.30506
1.22175
1.13035
1.22368
1.45213
1.25675
1.298
1.2961
1.29695
1.30486
1.33249
1.34107
1.35058
1.36233
1.37772
1.40546
1.38351
1.44121
1.40154
2.18012
33.8933
438.985
2037.43
3889.06
4722.13
5353.71
6300.85
8325.77
13907.7
31183.2
31281.3
13792.1
8239.44
6232.14
5294.42
4669.98
3843.5
2000.3
433.615
34.7962
2.18841
1.4471
1.48035
1.44814
1.35316
1.34316
1.35137
1.33018
1.27731
1.29074
1.31144
1.22716
1.13101
1.22588
1.45421
1.2572
1.30843
1.29488
1.29965
1.30462
1.33485
1.34101
1.35219
1.36225
1.37867
1.40526
1.3837
1.44037
1.40375
2.28502
39.3994
475.065
2110.1
3907.1
4706.34
5330.68
6275.43
8297.49
13864.4
31073.5
31214.8
13734.6
8204.18
6204.94
5271.61
4653.38
3850.49
2051.21
460.254
38.105
2.26814
1.47982
1.48036
1.4822
1.39008
1.34342
1.38264
1.32954
1.29704
1.29189
1.33745
1.24864
1.13238
1.23058
1.47568
1.2582
1.31429
1.29296
1.30547
1.31363
1.34129
1.34697
1.35679
1.36741
1.3815
1.40823
1.38521
1.44174
1.40854
2.47983
42.5983
510.14
2179.07
3923.28
4691.54
5309.56
6251.95
8271.48
13824.5
30964.5
31151.5
13683.8
8164.92
6168.71
5238.71
4628.1
3852.64
2093.36
483.061
41.5134
2.45193
1.48064
1.48055
1.4958
1.40274
1.38039
1.38201
1.32767
1.29667
1.2927
1.34724
1.24581
1.13315
1.23322
1.47956
1.25893
1.33847
1.29286
1.3227
1.3134
1.34777
1.34689
1.3618
1.3674
1.38527
1.40809
1.38829
1.44136
1.41031
2.62594
49.0866
548.479
2248.79
3937.6
4677.71
5290.02
6230.4
8247.83
13787.7
30855.4
31094.2
13627.5
8131.13
6143.99
5217.94
4611.67
3852.23
2133.84
506.823
44.7282
2.54251
1.52163
1.481
1.54547
1.45802
1.38003
1.38178
1.35752
1.29618
1.29476
1.38786
1.27167
1.13481
1.25737
1.51421
1.26059
1.33815
1.30017
1.32224
1.33026
1.36217
1.35962
1.37329
1.36745
1.394
1.41668
1.39938
1.44784
1.41401
2.87543
52.875
586.896
2315.17
3950.59
4664.87
5272.43
6210.83
8226.61
13754.3
30745.9
31042.2
13578.8
8092.06
6107.34
5185.13
4586.21
3849.78
2168.21
527.482
48.222
2.75764
1.52266
1.53528
1.56757
1.47716
1.43427
1.38069
1.35685
1.33637
1.29656
1.40382
1.26969
1.13601
1.27961
1.52265
1.2615
1.33754
1.32571
1.34393
1.33001
1.37515
1.35948
1.38424
1.3673
1.40331
1.41648
1.39927
1.44761
1.41619
3.07531
60.4109
628.112
2382.68
3962.82
4653.45
5256.24
6193.25
8207.73
13724.1
30635.4
31000.3
13522.4
8058.59
6084.49
5166.24
4569.88
3845.92
2198.23
547.558
51.2167
2.85441
1.581
1.53627
1.64193
1.56101
1.43179
1.3807
1.38079
1.33476
1.30091
1.46619
1.26477
1.13865
1.33371
1.57437
1.26364
1.33754
1.34487
1.34356
1.36147
1.40349
1.38533
1.40866
1.3918
1.42416
1.43666
1.41856
1.46494
1.42081
3.41367
65.1781
670.806
2447.1
3974.46
4642.96
5241.67
6177.66
8191.51
13700.2
30524.1
30961.9
13475.1
8019.69
6047.22
5133.02
4544.11
3838.11
2224.6
565.05
54.5743
3.05351
1.58214
1.61996
1.67738
1.59251
1.51254
1.38166
1.44151
1.39889
1.30449
1.49295
1.26118
1.14072
1.37074
1.59248
1.26438
1.33775
1.39363
1.36337
1.36124
1.42797
1.38517
1.43055
1.39163
1.44401
1.43625
1.41836
1.46449
1.42609
3.74467
74.8765
715.95
2512.57
3985.75
4634.16
5228.6
6164.22
8178.56
13681.1
30411.3
30941.5
13418.1
7985.56
6025.34
5115.39
4527.68
3829.34
2244.23
580.738
57.2182
3.24188
1.66969
1.62227
1.78788
1.66777
1.50674
1.38386
1.49158
1.39683
1.31285
1.5833
1.25238
1.14529
1.45595
1.67166
1.26695
1.39321
1.42892
1.41533
1.41735
1.48089
1.43429
1.47844
1.43894
1.48734
1.47742
1.45862
1.50184
1.45161
4.36747
81.2362
763.53
2575.34
3996.82
4626.11
5217.29
6152.92
8168.42
13668.6
30296.2
30914.2
13371.5
7946.55
5987.54
5081.66
4501.31
3818.21
2262.18
594.101
60.2006
3.33413
1.67051
1.71065
1.84501
1.81852
1.59322
1.38928
1.63489
1.39053
1.3195
1.62968
1.32904
1.14911
1.51678
1.70646
1.26832
1.39492
1.50116
1.46214
1.41744
1.5245
1.43424
1.51889
1.43882
1.52541
1.47663
1.45822
1.50116
1.49308
4.92936
94.1296
813.366
2639.51
4007.98
4620.05
5207.55
6143.85
8161.8
13659.6
30178.8
30910.5
13313.1
7911.13
5965.56
5064.4
4484.67
3804.64
2271.81
604.887
62.3785
3.63506
1.80088
1.79423
2.01253
1.81294
1.66103
1.39922
1.63204
1.49819
1.33269
1.76803
1.32428
1.15813
1.65071
1.82745
1.27124
1.44535
1.58607
1.56359
1.51426
1.61801
1.52186
1.60626
1.52405
1.60745
1.55309
1.5337
1.57419
1.6058
6.04189
102.585
866.51
2701.37
4019.3
4614.56
5199.73
6137.05
8157.96
13658.1
30057.4
30899.3
13266.4
7871.51
5927.46
5030.14
4457.41
3790.52
2280.77
613.267
64.7279
3.71306
1.80618
2.05909
2.09729
1.81484
1.90673
1.40617
1.7052
1.49224
1.34936
1.84174
1.31324
1.16809
1.74551
1.88884
1.27439
1.5477
1.68374
1.64155
1.51526
1.69165
1.52246
1.67627
1.52439
1.67468
1.55178
1.53279
1.57346
1.63335
6.93278
119.576
921.861
2764.88
4030.99
4611.43
5193.49
6132.52
8158.52
13660
29933.4
30910.7
13206.2
7834.36
5904.5
5012.68
4440.24
3772.77
2280.71
618.797
66.1426
4.0419
1.94248
2.07169
2.32785
1.81823
1.89584
1.50332
1.95231
1.48614
1.36884
2.0396
1.30814
1.1915
1.94687
2.05506
1.28293
1.72286
1.84552
1.80836
1.67526
1.84862
1.67093
1.82605
1.66967
1.81877
1.68472
1.66457
1.70356
1.78804
8.70043
130.962
981.278
2826.45
4043.25
4608.64
5189.35
6130.47
8160.93
13665.3
29803.8
30916.6
13158.6
7793.6
5866.15
4977.72
4412.07
3755.33
2278.26
621.65
67.8807
4.10132
2.06804
2.0812
2.45427
1.82198
1.88695
1.78384
1.93572
1.47509
1.40185
2.152
1.29873
1.21205
2.09114
2.18885
1.29416
1.86882
1.98518
1.93206
1.67836
1.96702
1.67332
1.94057
1.67147
1.92918
1.68265
1.663
1.70281
1.86315
10.2293
152.692
1042.99
2889.87
4056.06
4608.69
5186.73
6131.13
8166.17
13671.1
29671.3
30943.9
13095.9
7754.42
5841.6
4959.83
4393.78
3733.98
2270.84
620.979
68.3931
4.40133
2.36479
2.10573
2.77231
1.82501
1.88835
1.96557
2.20464
1.72757
1.43181
2.41966
1.29721
1.27179
2.4862
2.35509
1.32092
2.15202
2.25274
2.19512
1.93277
2.21907
1.91384
2.18402
1.9111
2.2524
1.90102
1.88001
1.9188
1.97168
13.3429
168.716
1109.41
2951.55
4070.01
4609.71
5187.11
6133.58
8175.23
13678.1
29536.5
30967.7
13046.8
7712.05
5802.98
4924.31
4364.83
3712.67
2261.17
618.568
69.4616
4.62976
2.52887
2.12964
2.9588
1.82702
1.89982
2.39654
2.18726
1.70778
1.49138
2.60713
1.29803
1.29749
2.50573
2.74899
1.34751
2.36765
2.46118
2.38163
1.94008
2.39965
1.92016
2.36222
1.91432
2.24239
1.89805
1.88036
1.91792
2.14737
15.748
195.997
1178.29
3014.97
4084.96
4612.19
5188.83
6138.83
8188.18
13691.3
29397.9
31011.6
12981.3
7670.62
5776.41
4904.78
4345.03
3688.34
2241.26
612.493
69.4039
5.14724
2.91071
2.18211
3.3373
1.83239
2.12522
2.6554
2.58409
2.07711
1.53894
2.91122
1.30768
1.73743
2.52056
2.68948
1.40812
2.79779
2.88047
2.91406
2.33767
2.91656
2.29436
2.73997
2.2812
2.57744
2.22332
1.88659
2.24274
2.36224
20.6624
217.915
1252.45
3077
4101.38
4617.14
5192.71
6147.7
8205.3
13709.4
29254.8
31054
12930.3
7626.36
5737.43
4869.35
4315.28
3662.56
2223.01
606.042
69.1124
5.42805
3.12594
2.23053
3.72288
1.86227
2.91013
3.20191
2.55379
2.04232
1.63998
3.30103
1.31742
1.75316
2.5466
3.0429
1.46037
3.109
3.18446
2.88409
2.34806
2.89143
2.30796
3.00261
2.28333
2.56964
2.20717
1.89875
2.2584
2.73905
24.3479
252.03
1329.27
3141.06
4118.84
4623.79
5199.18
6159.62
8227.01
13738.3
29106.2
31114.9
12861.3
7582.45
5708.52
4847.32
4293.87
3635.44
2193.46
593.334
68.1889
6.23436
3.61604
2.33258
4.12884
1.89565
2.95125
3.67469
2.89399
2.57413
1.71464
3.61703
1.34898
2.38879
3.15227
2.9638
1.59895
3.9522
3.79015
3.38753
2.92137
3.39354
2.87915
3.74352
2.82014
3.06911
2.67623
1.93341
2.27755
3.15326
31.8938
281.205
1411.84
3204.31
4137.65
4632.8
5208.35
6174.95
8253.59
13776
28947.4
31176.4
12808.1
7536.05
5669.13
4812.28
4263.17
3604.84
2164.56
581.623
67.6803
6.2209
3.9054
2.40918
4.76375
1.92565
3.39384
4.27771
3.33547
2.5427
1.89383
4.41197
1.37326
2.42023
3.17402
3.48854
1.6774
3.96118
4.21412
3.34467
2.92864
3.36946
2.89761
3.70104
2.82058
3.05935
2.64064
1.96462
2.30667
3.92715
37.4115
323.603
1497.14
3269.56
4157.54
4643.44
5219.6
6193.13
8284.34
13819.3
28781.9
31254.2
12735.3
7489.58
5637.75
4787.52
4240.05
3574.87
2126.32
564.616
65.9158
6.93415
4.81493
3.38172
5.22705
2.05887
4.69883
5.12813
4.49094
2.47929
1.99735
4.22754
1.45103
3.3288
3.99296
3.37482
1.86936
4.75405
5.06964
4.06364
3.72426
4.09456
3.69719
4.4112
3.52166
3.06547
3.30314
1.99655
2.35789
4.69406
48.9467
361.603
1588.57
3334.14
4178.88
4656.56
5233.78
6215.08
8320.31
13870.4
28605.8
31335.2
12679.7
7440.9
5597.87
4752.92
4208.25
3539.06
2086.72
548.236
65.0512
6.8856
4.69044
3.48737
6.42362
2.1294
4.77622
5.84325
4.32864
2.42398
2.1868
4.92185
1.51157
3.37277
4.00359
4.11792
1.95984
4.81115
5.62552
4.02858
3.72707
4.0732
3.71301
4.39721
3.49826
3.07774
3.26927
2.01799
2.42502
6.18507
56.5582
413.811
1684.5
3398.74
4201.4
4671.43
5250.23
6240.13
8360.76
13927
28422.7
31430.1
12602.6
7391.91
5564.04
4725.31
4183.4
3506.1
2039.76
527.71
62.6803
6.89357
5.64788
4.81176
6.17198
2.34019
6.09884
7.08563
5.20113
2.4176
2.37825
4.69701
1.66838
4.59483
5.06868
3.95327
2.20176
5.9818
6.75575
5.03549
4.79693
5.06648
4.74205
4.36695
3.45572
3.08696
3.21852
2.04294
2.5605
7.51449
72.1192
462.473
1786.82
3462.57
4225.52
4688.95
5269.86
6269.34
8406.87
13991.3
28228.7
31532
12544.6
7340.86
5523.62
4691.22
4150.35
3464.61
1989.67
507.636
60.7364
6.88167
5.56766
4.88162
6.81785
2.44296
6.23979
7.93257
4.90463
2.42054
2.52864
5.67045
1.844
4.62867
5.06566
4.96008
2.32278
6.09806
7.46835
5.00633
4.7892
4.94069
4.73458
4.31195
3.41357
3.09384
3.14416
2.0578
2.70695
10.1331
83.104
526.231
1893.27
3526.32
4250.95
4708.34
5291.93
6301.89
8457.77
14060.8
28027.7
31644.6
12462.9
7289.45
5487.49
4660.74
4123.78
3428.35
1934.23
484.436
59.3847
6.92941
7.20709
6.45568
7.64687
2.71489
8.19161
10.1063
5.56231
2.47195
4.25223
5.3958
2.04274
6.19339
6.45666
4.72261
2.62834
7.81663
9.25013
5.05227
6.04111
4.67452
4.7258
4.26426
3.37669
3.09389
3.09186
2.09135
3.66423
12.3576
105.346
587.476
2005.78
3589.4
4278.18
4730.56
5317.46
6339.03
8514.77
14137.9
27815.4
31767.9
12402.4
7236.07
5446.47
4627.22
4089.19
3380.73
1873.84
462.206
56.6053
7.94265
7.18085
6.77384
9.80244
2.91664
8.33594
9.95954
6.43542
2.52675
4.42342
6.83973
3.98676
6.20466
6.44339
6.04116
2.85265
7.90796
8.94264
5.11252
5.94285
4.49466
4.70722
4.19707
3.33927
3.08951
3.01436
2.14828
4.80024
16.7525
121.152
664.386
2121.8
3652.39
4306.92
4754.8