/*--------------------------------*- C++ -*----------------------------------*\
| =========                 |                                                 |
| \\      /  F ield         | OpenFOAM: The Open Source CFD Toolbox           |
|  \\    /   O peration     | Version:  2.1.0                                 |
|   \\  /    A nd           | Web:      www.OpenFOAM.org                      |
|    \\/     M anipulation  |                                                 |
\*---------------------------------------------------------------------------*/
FoamFile
{
    version     2.0;
    format      ascii;
    class       surfaceScalarField;
    location    "5000";
    object      phi;
}
// * * * * * * * * * * * * * * * * * * * * * * * * * * * * * * * * * * * * * //

dimensions      [1 0 -1 0 0 0 0];

internalField   nonuniform List<scalar> 
29650
(
1.86263e-05
0.000147909
1.72704e-05
0.000173444
1.38902e-05
0.000181206
1.05167e-05
0.000187127
7.32166e-06
0.000193074
4.339e-06
0.000199191
1.58706e-06
0.000205501
-9.14506e-07
0.00021201
-3.16644e-06
0.000218744
-5.16516e-06
0.000225708
-6.90356e-06
0.000232905
-8.37702e-06
0.000240346
-9.58919e-06
0.000248048
-1.05397e-05
0.000256015
-1.11946e-05
0.000264222
-1.15293e-05
0.000272689
-1.1551e-05
0.000281455
-1.12682e-05
0.000290532
-1.06594e-05
0.000299901
-9.71172e-06
0.00030958
-8.43653e-06
0.000319605
-6.82087e-06
0.000329962
-4.82803e-06
0.000340638
-2.48558e-06
0.000351711
1.90639e-07
0.000363181
2.86307e-06
0.000363185
5.16025e-06
0.000351757
7.10681e-06
0.000340685
8.70544e-06
0.000329979
9.95836e-06
0.000319627
1.08673e-05
0.000309619
1.14483e-05
0.000299929
1.17055e-05
0.000290558
1.16515e-05
0.000281487
1.12902e-05
0.000272715
1.06326e-05
0.000264225
9.68477e-06
0.000256012
8.45494e-06
0.000248066
6.95008e-06
0.000240378
5.17853e-06
0.000232938
3.15221e-06
0.000225735
8.81324e-07
0.000218763
-1.62951e-06
0.000212019
-4.37842e-06
0.000205498
-7.353e-06
0.000199183
-1.05384e-05
0.000193064
-1.39055e-05
0.00018712
-1.72799e-05
0.0001812
-1.86275e-05
0.000173436
0.000147908
8.63311e-06
0.000139276
8.46502e-06
0.000173612
5.91009e-06
0.000183761
3.20984e-06
0.000189827
7.23643e-07
0.00019556
-1.5831e-06
0.000201498
-3.69365e-06
0.000207612
-5.61946e-06
0.000213935
-7.3448e-06
0.000220469
-8.85884e-06
0.000227222
-1.01543e-05
0.0002342
-1.12212e-05
0.000241413
-1.20404e-05
0.000248867
-1.25935e-05
0.000256568
-1.28978e-05
0.000264527
-1.29629e-05
0.000272754
-1.27663e-05
0.000281258
-1.22799e-05
0.000290046
-1.15067e-05
0.000299128
-1.04435e-05
0.000308517
-9.05949e-06
0.000318221
-7.34747e-06
0.00032825
-5.32837e-06
0.000338619
-2.95517e-06
0.000349338
-1.91498e-07
0.000360417
2.57616e-06
0.000360417
4.99643e-06
0.000349336
7.06253e-06
0.000338619
8.79121e-06
0.00032825
1.0199e-05
0.000318219
1.13026e-05
0.000308515
1.21035e-05
0.000299128
1.26166e-05
0.000290045
1.28464e-05
0.000281257
1.2807e-05
0.000272754
1.25044e-05
0.000264528
1.19494e-05
0.000256567
1.11503e-05
0.000248865
1.01161e-05
0.000241412
8.85396e-06
0.0002342
7.36707e-06
0.000227222
5.66013e-06
0.00022047
3.74289e-06
0.000213936
1.62846e-06
0.000207613
-6.86393e-07
0.000201498
-3.18283e-06
0.000195561
-5.88906e-06
0.000189826
-8.44857e-06
0.000183759
-8.6235e-06
0.000173611
0.000139284
6.58756e-06
0.000132688
7.4647e-06
0.000172735
5.35126e-06
0.000185874
2.75902e-06
0.000192419
3.05711e-07
0.000198013
-1.96831e-06
0.000203772
-4.04724e-06
0.000209691
-5.92871e-06
0.000215817
-7.60336e-06
0.000222144
-9.06582e-06
0.000228684
-1.03085e-05
0.000235443
-1.13231e-05
0.000242428
-1.21017e-05
0.000249646
-1.26392e-05
0.000257106
-1.29278e-05
0.000264815
-1.29573e-05
0.000272783
-1.27172e-05
0.000281018
-1.22001e-05
0.000289529
-1.13976e-05
0.000298325
-1.02984e-05
0.000307418
-8.89303e-06
0.000316816
-7.17345e-06
0.00032653
-5.12584e-06
0.000336572
-2.74048e-06
0.000346953
-7.89748e-09
0.000357685
2.72482e-06
0.000357684
5.10902e-06
0.000346952
7.15646e-06
0.000336571
8.87729e-06
0.000326529
1.0282e-05
0.000316815
1.13809e-05
0.000307417
1.21843e-05
0.000298324
1.27015e-05
0.000289528
1.29419e-05
0.000281017
1.29143e-05
0.000272782
1.26275e-05
0.000264814
1.20899e-05
0.000257105
1.13097e-05
0.000249645
1.02948e-05
0.000242427
9.05296e-06
0.000235442
7.59177e-06
0.000228683
5.91831e-06
0.000222143
4.03824e-06
0.000215816
1.96037e-06
0.00020969
-3.12954e-07
0.000203771
-2.76617e-06
0.000198014
-5.3582e-06
0.000192418
-7.46883e-06
0.00018587
-6.58997e-06
0.000172732
0.000132694
4.80845e-06
0.00012788
6.24191e-06
0.000171301
4.67618e-06
0.00018744
2.22309e-06
0.000194872
-1.4593e-07
0.000200382
-2.33582e-06
0.000205962
-4.33479e-06
0.00021169
-6.14258e-06
0.000217625
-7.75107e-06
0.000223753
-9.15307e-06
0.000230086
-1.03402e-05
0.00023663
-1.13041e-05
0.000243392
-1.20404e-05
0.000250382
-1.25391e-05
0.000257604
-1.2792e-05
0.000265068
-1.27931e-05
0.000272784
-1.25356e-05
0.000280761
-1.20091e-05
0.000289002
-1.12037e-05
0.00029752
-1.0113e-05
0.000306327
-8.7257e-06
0.000315428
-7.0305e-06
0.000324835
-5.0203e-06
0.000334561
-2.68319e-06
0.000344616
-6.53366e-09
0.000355008
2.67022e-06
0.000355008
5.00903e-06
0.000344613
7.02011e-06
0.00033456
8.71483e-06
0.000324834
1.01034e-05
0.000315426
1.11957e-05
0.000306324
1.20006e-05
0.00029752
1.25278e-05
0.000289
1.2786e-05
0.000280759
1.2784e-05
0.000272784
1.25298e-05
0.000265069
1.20317e-05
0.000257603
1.12974e-05
0.000250379
1.03343e-05
0.00024339
9.1497e-06
0.000236627
7.7502e-06
0.000230083
6.1436e-06
0.00022375
4.3355e-06
0.000217624
2.33585e-06
0.00021169
1.4588e-07
0.000205961
-2.22283e-06
0.000200382
-4.67519e-06
0.000194871
-6.24219e-06
0.000187437
-4.8089e-06
0.000171298
0.000127885
3.22458e-06
0.000124655
4.8795e-06
0.000169647
3.92591e-06
0.000188393
1.64196e-06
0.000197156
-6.44714e-07
0.000202669
-2.75854e-06
0.000208076
-4.68817e-06
0.000213619
-6.42889e-06
0.000219365
-7.96966e-06
0.000225293
-9.30779e-06
0.000231424
-1.04365e-05
0.000237759
-1.13514e-05
0.000244307
-1.20418e-05
0.000251073
-1.2503e-05
0.000258065
-1.27287e-05
0.000265294
-1.27081e-05
0.000272764
-1.24318e-05
0.000280484
-1.18931e-05
0.000288464
-1.10842e-05
0.000296711
-9.99399e-06
0.000305237
-8.61402e-06
0.000314048
-6.93641e-06
0.000323157
-4.94819e-06
0.000332573
-2.63995e-06
0.000342307
-2.87075e-09
0.000352371
2.63427e-06
0.00035237
4.94093e-06
0.000342307
6.92875e-06
0.000332572
8.60726e-06
0.000323156
9.98648e-06
0.000314047
1.10761e-05
0.000305235
1.1886e-05
0.00029671
1.24247e-05
0.000288462
1.27012e-05
0.000280482
1.27236e-05
0.000272762
1.25003e-05
0.000265292
1.20389e-05
0.000258064
1.13472e-05
0.000251071
1.04324e-05
0.000244305
9.30194e-06
0.000237757
7.96222e-06
0.000231423
6.42038e-06
0.000225292
4.68092e-06
0.000219364
2.75273e-06
0.000213618
6.39702e-07
0.000208074
-1.64645e-06
0.000202669
-3.92986e-06
0.000197154
-4.88209e-06
0.000188389
-3.227e-06
0.000169643
0.000124658
1.92714e-06
0.000122728
3.48374e-06
0.00016809
3.09201e-06
0.000188785
1.03366e-06
0.000199215
-1.16048e-06
0.000204863
-3.18948e-06
0.000210105
-5.04002e-06
0.00021547
-6.70646e-06
0.000221032
-8.18144e-06
0.000226768
-9.46047e-06
0.000232703
-1.0535e-05
0.000238834
-1.14001e-05
0.000245172
-1.2049e-05
0.000251721
-1.24723e-05
0.000258489
-1.26618e-05
0.000265483
-1.26119e-05
0.000272714
-1.23164e-05
0.000280189
-1.17652e-05
0.000287912
-1.0949e-05
0.000295895
-9.86153e-06
0.00030415
-8.49222e-06
0.000312679
-6.83022e-06
0.000321495
-4.86849e-06
0.000330612
-2.59598e-06
0.000340035
-6.8717e-10
0.000349776
2.59469e-06
0.000349775
4.86875e-06
0.000340033
6.83107e-06
0.00033061
8.49257e-06
0.000321494
9.86296e-06
0.000312677
1.09517e-05
0.000304146
1.17672e-05
0.000295894
1.23188e-05
0.00028791
1.26147e-05
0.000280186
1.26634e-05
0.000272713
1.24725e-05
0.000265483
1.20498e-05
0.000258487
1.14027e-05
0.000251718
1.05381e-05
0.000245169
9.46331e-06
0.000238832
8.18365e-06
0.000232702
6.70778e-06
0.000226768
5.04035e-06
0.000221031
3.18898e-06
0.00021547
1.15969e-06
0.000210103
-1.0342e-06
0.000204863
-3.092e-06
0.000199212
-3.48436e-06
0.000188782
-1.92901e-06
0.000168088
0.000122729
9.31323e-07
0.000121797
2.23131e-06
0.00016679
2.30776e-06
0.000188709
5.22625e-07
0.000201
-1.57916e-06
0.000206965
-3.53136e-06
0.000212057
-5.31216e-06
0.000217251
-6.91217e-06
0.000222632
-8.32571e-06
0.000228182
-9.54842e-06
0.000233926
-1.0572e-05
0.000239857
-1.13904e-05
0.00024599
-1.1996e-05
0.000252327
-1.23839e-05
0.000258877
-1.25492e-05
0.000265649
-1.2481e-05
0.000272646
-1.21705e-05
0.000279878
-1.16112e-05
0.000287353
-1.07958e-05
0.00029508
-9.71408e-06
0.000303068
-8.35747e-06
0.000311322
-6.7189e-06
0.000319857
-4.78592e-06
0.000328679
-2.54959e-06
0.000337799
-1.52329e-09
0.000347228
2.54658e-06
0.000347227
4.78127e-06
0.000337798
6.7137e-06
0.000328677
8.35284e-06
0.000319855
9.70831e-06
0.000311321
1.07892e-05
0.000303065
1.16051e-05
0.000295078
1.21638e-05
0.000287351
1.24741e-05
0.000279876
1.25435e-05
0.000272644
1.23801e-05
0.000265646
1.19911e-05
0.000258876
1.13838e-05
0.000252325
1.0565e-05
0.000245988
9.5417e-06
0.000239855
8.31962e-06
0.000233924
6.90706e-06
0.00022818
5.30803e-06
0.00022263
3.52816e-06
0.000217249
1.57623e-06
0.000212055
-5.25753e-07
0.000206964
-2.30935e-06
0.000200996
-2.2326e-06
0.000188705
-9.32773e-07
0.000166788
0.000121796
2.50705e-07
0.000121546
1.20977e-06
0.000165831
1.58926e-06
0.000188329
1.23613e-07
0.000202465
-1.88458e-06
0.000208973
-3.76457e-06
0.000213937
-5.47819e-06
0.000218964
-7.01593e-06
0.00022417
-8.37345e-06
0.000229539
-9.54466e-06
0.000235097
-1.05232e-05
0.000240836
-1.13031e-05
0.00024677
-1.18781e-05
0.000252902
-1.224e-05
0.000259239
-1.23804e-05
0.000265789
-1.2294e-05
0.000272559
-1.19749e-05
0.000279559
-1.14139e-05
0.000286792
-1.0602e-05
0.000294268
-9.53305e-06
0.000301999
-8.19733e-06
0.000309987
-6.58436e-06
0.000318244
-4.68756e-06
0.000326782
-2.4964e-06
0.000335607
4.82135e-10
0.000344731
2.4974e-06
0.00034473
4.69e-06
0.000335605
6.58732e-06
0.00032678
8.19979e-06
0.000318243
9.53654e-06
0.000309984
1.06065e-05
0.000301995
1.14178e-05
0.000294267
1.19793e-05
0.00028679
1.22986e-05
0.000279557
1.23838e-05
0.000272558
1.22422e-05
0.000265788
1.18811e-05
0.000259237
1.13077e-05
0.000252899
1.05283e-05
0.000246767
9.54951e-06
0.000240834
8.3777e-06
0.000235096
7.01931e-06
0.000229539
5.48066e-06
0.000224169
3.76624e-06
0.000218964
1.88602e-06
0.000213936
-1.21451e-07
0.000208972
-1.58831e-06
0.000202463
-1.20995e-06
0.000188326
-2.51635e-07
0.00016583
0.000121545
-1.91201e-07
0.000121737
4.23423e-07
0.000165216
9.2013e-07
0.000187832
-1.95901e-07
0.000203581
-2.09824e-06
0.000210875
-3.91295e-06
0.000215751
-5.56779e-06
0.000220619
-7.0505e-06
0.000225652
-8.35778e-06
0.000230847
-9.48348e-06
0.000236223
-1.0422e-05
0.000241774
-1.11661e-05
0.000247514
-1.17088e-05
0.000253445
-1.20453e-05
0.000259575
-1.21715e-05
0.000265915
-1.20769e-05
0.000272465
-1.1753e-05
0.000279235
-1.11937e-05
0.000286233
-1.03924e-05
0.000293466
-9.33897e-06
0.000300945
-8.02541e-06
0.000308673
-6.4454e-06
0.000316664
-4.58678e-06
0.000324923
-2.44123e-06
0.000333462
-8.17507e-10
0.00034229
2.43967e-06
0.000342289
4.58369e-06
0.000333461
6.44182e-06
0.000324922
8.02249e-06
0.000316662
9.33483e-06
0.000308672
1.03875e-05
0.000300942
1.11894e-05
0.000293465
1.17481e-05
0.000286231
1.20718e-05
0.000279233
1.21676e-05
0.000272463
1.20432e-05
0.000265912
1.17053e-05
0.000259575
1.11611e-05
0.000253443
1.04163e-05
0.000247512
9.4783e-06
0.000241772
8.35338e-06
0.000236221
7.04704e-06
0.000230845
5.56526e-06
0.000225651
3.91135e-06
0.000220618
2.09687e-06
0.00021575
1.93857e-07
0.000210875
-9.21538e-07
0.000203578
-4.24482e-07
0.000187829
1.90678e-07
0.000165215
0.000121735
-4.70836e-07
0.000122208
-1.73466e-07
0.000164919
2.98788e-07
0.00018736
-4.63753e-07
0.000204344
-2.24751e-06
0.000212659
-3.99813e-06
0.000217502
-5.59432e-06
0.000222215
-7.02368e-06
0.000227082
-8.28353e-06
0.000232106
-9.36657e-06
0.000237306
-1.02676e-05
0.000242675
-1.09816e-05
0.000248228
-1.15017e-05
0.000253965
-1.18207e-05
0.000259894
-1.19301e-05
0.000266025
-1.18252e-05
0.00027236
-1.15004e-05
0.00027891
-1.09472e-05
0.000285679
-1.01567e-05
0.000292676
-9.12343e-06
0.000299912
-7.83811e-06
0.000307388
-6.29079e-06
0.000315116
-4.47531e-06
0.000323108
-2.38171e-06
0.000331368
7.12325e-10
0.000339908
2.38313e-06
0.000339907
4.47806e-06
0.000331366
6.29399e-06
0.000323106
7.84082e-06
0.000315115
9.12714e-06
0.000307386
1.01614e-05
0.000299908
1.09512e-05
0.000292675
1.1505e-05
0.000285677
1.18299e-05
0.000278908
1.19336e-05
0.000272359
1.18231e-05
0.000266023
1.15051e-05
0.000259893
1.09864e-05
0.000253962
1.02726e-05
0.000248226
9.3715e-06
0.000242673
8.28779e-06
0.000237305
7.02714e-06
0.000232106
5.59693e-06
0.000227081
3.99993e-06
0.000222215
2.24918e-06
0.000217501
4.66538e-07
0.000212658
-2.96649e-07
0.000204341
1.74251e-07
0.000187359
4.70793e-07
0.000164918
0.000122206
-6.47605e-07
0.000122856
-6.15412e-07
0.000164887
-2.71918e-07
0.000187017
-7.22631e-07
0.000204795
-2.35765e-06
0.000214294
-4.04821e-06
0.000219193
-5.59204e-06
0.000223759
-6.97306e-06
0.000228463
-8.18899e-06
0.000233322
-9.23294e-06
0.00023835
-1.00999e-05
0.000243542
-1.07845e-05
0.000248913
-1.12784e-05
0.000254459
-1.15772e-05
0.000260193
-1.16776e-05
0.000266125
-1.15697e-05
0.000272252
-1.12452e-05
0.000278586
-1.06984e-05
0.000285133
-9.92322e-06
0.000291901
-8.91005e-06
0.000298899
-7.65111e-06
0.000306129
-6.14086e-06
0.000313606
-4.36751e-06
0.000321334
-2.32331e-06
0.000329324
-7.76826e-10
0.000337585
2.32186e-06
0.000337584
4.36462e-06
0.000329324
6.13754e-06
0.000321333
7.64846e-06
0.000313604
8.9061e-06
0.000306128
9.91857e-06
0.000298896
1.06943e-05
0.000291899
1.12404e-05
0.000285131
1.15646e-05
0.000278584
1.16736e-05
0.00027225
1.15748e-05
0.000266121
1.12744e-05
0.000260193
1.07787e-05
0.000254457
1.00943e-05
0.00024891
9.22728e-06
0.00024354
8.18399e-06
0.000238348
6.96881e-06
0.000233321
5.58856e-06
0.000228461
4.04549e-06
0.000223758
2.35497e-06
0.000219191
7.19802e-07
0.000214293
2.69809e-07
0.000204791
6.14178e-07
0.000187014
6.47331e-07
0.000164885
0.000122854
-7.61814e-07
0.000123617
-9.47929e-07
0.000165073
-7.61933e-07
0.000186831
-9.69347e-07
0.000205002
-2.42745e-06
0.000215752
-4.05664e-06
0.000220822
-5.54746e-06
0.00022525
-6.88127e-06
0.000229796
-8.05529e-06
0.000234496
-9.06211e-06
0.000239357
-9.89754e-06
0.000244378
-1.05558e-05
0.000249571
-1.10318e-05
0.000254935
-1.13179e-05
0.000260479
-1.14063e-05
0.000266214
-1.12923e-05
0.000272138
-1.09708e-05
0.000278265
-1.04338e-05
0.000284596
-9.67299e-06
0.00029114
-8.68301e-06
0.000297909
-7.45533e-06
0.000304901
-5.9804e-06
0.000312131
-4.2525e-06
0.000319606
-2.26224e-06
0.000327334
4.61035e-10
0.000335323
2.26313e-06
0.000335322
4.25464e-06
0.000327332
5.98293e-06
0.000319605
7.45742e-06
0.00031213
8.68613e-06
0.000304899
9.67702e-06
0.000297905
1.04373e-05
0.000291139
1.09748e-05
0.000284594
1.12965e-05
0.000278262
1.14095e-05
0.000272137
1.13202e-05
0.000266211
1.10353e-05
0.000260478
1.05606e-05
0.000254932
9.90265e-06
0.000249568
9.06727e-06
0.000244376
8.05992e-06
0.000239355
6.8853e-06
0.000234495
5.55083e-06
0.000229795
4.05942e-06
0.000225249
2.43029e-06
0.00022082
9.72274e-07
0.000215751
7.6407e-07
0.000204999
9.48983e-07
0.000186829
7.62057e-07
0.000165072
0.000123616
-8.3855e-07
0.000124456
-1.21951e-06
0.000165454
-1.1928e-06
0.000186804
-1.2307e-06
0.00020504
-2.5164e-06
0.000217038
-4.08115e-06
0.000222387
-5.52173e-06
0.00022669
-6.80958e-06
0.000231084
-7.94177e-06
0.000235629
-8.91172e-06
0.000240327
-9.71517e-06
0.000245181
-1.03461e-05
0.000250202
-1.07981e-05
0.000255387
-1.10657e-05
0.000260746
-1.11464e-05
0.000266294
-1.10308e-05
0.000272022
-1.07111e-05
0.000277945
-1.01816e-05
0.000284066
-9.43707e-06
0.000290395
-8.46815e-06
0.00029694
-7.26738e-06
0.0003037
-5.82989e-06
0.000310694
-4.1443e-06
0.000317921
-2.20337e-06
0.000325393
-4.57372e-11
0.000333119
2.20341e-06
0.000333118
4.14298e-06
0.000325392
5.82817e-06
0.00031792
7.26631e-06
0.000310692
8.4657e-06
0.0003037
9.43394e-06
0.000296937
1.0179e-05
0.000290394
1.07076e-05
0.000284065
1.1027e-05
0.000277943
1.11435e-05
0.00027202
1.10641e-05
0.00026629
1.07947e-05
0.000260748
1.0341e-05
0.000255386
9.70992e-06
0.0002502
8.90631e-06
0.000245179
7.9368e-06
0.000240325
6.8051e-06
0.000235627
5.51773e-06
0.000231083
4.07763e-06
0.000226689
2.51257e-06
0.000222386
1.22916e-06
0.000217034
1.19155e-06
0.000205037
1.21888e-06
0.000186802
8.38727e-07
0.000165452
0.000124454
-8.98332e-07
0.000125354
-1.4298e-06
0.000165985
-1.55278e-06
0.000186927
-1.49903e-06
0.000204986
-2.57241e-06
0.000218111
-4.07094e-06
0.000223885
-5.46156e-06
0.000228081
-6.70529e-06
0.000232328
-7.7983e-06
0.000236722
-8.73379e-06
0.000241262
-9.50797e-06
0.000245955
-1.01149e-05
0.000250809
-1.05506e-05
0.000255822
-1.08072e-05
0.000261003
-1.08777e-05
0.000266365
-1.07574e-05
0.000271902
-1.04415e-05
0.000277629
-9.92266e-06
0.000283547
-9.19294e-06
0.000289666
-8.24721e-06
0.000295994
-7.07759e-06
0.000302531
-5.67491e-06
0.000309291
-4.03386e-06
0.00031628
-2.14558e-06
0.000323505
-5.47264e-10
0.000330974
2.14441e-06
0.000330973
4.03388e-06
0.000323503
5.67528e-06
0.000316278
7.07756e-06
0.000309289
8.24824e-06
0.000302529
9.19482e-06
0.00029599
9.92413e-06
0.000289665
1.04436e-05
0.000283546
1.07597e-05
0.000277627
1.08791e-05
0.000271901
1.0808e-05
0.000266361
1.05525e-05
0.000261003
1.01183e-05
0.00025582
9.51185e-06
0.000250806
8.73788e-06
0.000245953
7.80202e-06
0.000241261
6.70865e-06
0.000236721
5.46452e-06
0.000232327
4.07354e-06
0.00022808
2.57554e-06
0.000223884
1.50049e-06
0.000218109
1.55367e-06
0.000204984
1.43003e-06
0.000186926
8.98109e-07
0.000165984
0.000125352
-9.36084e-07
0.00012629
-1.5618e-06
0.000166611
-1.81882e-06
0.000187184
-1.75886e-06
0.000204926
-2.60734e-06
0.00021896
-4.03409e-06
0.000225312
-5.37985e-06
0.000229427
-6.58307e-06
0.000233531
-7.6394e-06
0.000237778
-8.543e-06
0.000242166
-9.28984e-06
0.000246702
-9.87386e-06
0.000251393
-1.02895e-05
0.000256238
-1.05317e-05
0.000261245
-1.05978e-05
0.000266431
-1.04788e-05
0.000271783
-1.01677e-05
0.000277318
-9.65884e-06
0.000283038
-8.94753e-06
0.000288954
-8.02487e-06
0.000295072
-6.88371e-06
0.00030139
-5.51975e-06
0.000307927
-3.92201e-06
0.000314682
-2.08378e-06
0.000321666
1.60086e-09
0.000328889
2.08714e-06
0.000328888
3.92411e-06
0.000321666
5.52151e-06
0.000314681
6.88614e-06
0.000307925
8.02594e-06
0.000301389
8.94798e-06
0.000295068
9.65986e-06
0.000288953
1.01677e-05
0.000283038
1.04786e-05
0.000277316
1.05984e-05
0.000271781
1.05335e-05
0.000266426
1.02894e-05
0.000261247
9.87253e-06
0.000256237
9.28818e-06
0.00025139
8.54122e-06
0.0002467
7.63805e-06
0.000242164
6.58214e-06
0.000237776
5.37937e-06
0.00023353
4.03403e-06
0.000229426
2.60661e-06
0.000225311
1.75741e-06
0.000218958
1.81762e-06
0.000204924
1.56147e-06
0.000187182
9.36397e-07
0.000166609
0.000126289
-9.57671e-07
0.000127248
-1.65561e-06
0.000167309
-2.01267e-06
0.000187541
-1.99731e-06
0.000204911
-2.64419e-06
0.000219607
-3.99162e-06
0.000226659
-5.2909e-06
0.000230726
-6.45389e-06
0.000234694
-7.47464e-06
0.000238799
-8.34725e-06
0.000243039
-9.06795e-06
0.000247423
-9.63111e-06
0.000251956
-1.0033e-05
0.00025664
-1.02665e-05
0.000261479
-1.03249e-05
0.000266489
-1.02034e-05
0.000271661
-9.89773e-06
0.000277012
-9.40112e-06
0.000282542
-8.70596e-06
0.000288259
-7.80729e-06
0.000294173
-6.69794e-06
0.00030028
-5.36907e-06
0.000306598
-3.81578e-06
0.000313129
-2.02973e-06
0.00031988
-1.92432e-09
0.000326861
2.02577e-06
0.00032686
3.81294e-06
0.000319879
5.36651e-06
0.000313127
6.69502e-06
0.000306596
7.80541e-06
0.000300279
8.70483e-06
0.000294168
9.39968e-06
0.000288258
9.89697e-06
0.000282541
1.02027e-05
0.00027701
1.03235e-05
0.00027166
1.02645e-05
0.000266485
1.0032e-05
0.00026148
9.63172e-06
0.000256637
9.06899e-06
0.000251953
8.3485e-06
0.000247421
7.47557e-06
0.000243037
6.45452e-06
0.000238797
5.29119e-06
0.000234693
3.9916e-06
0.000230725
2.64498e-06
0.000226658
1.99918e-06
0.000219604
2.01389e-06
0.000204909
1.65588e-06
0.00018754
9.5742e-07
0.000167308
0.000127246
-9.68219e-07
0.000128216
-1.71293e-06
0.000168054
-2.13399e-06
0.000187962
-2.188e-06
0.000204965
-2.6755e-06
0.000220094
-3.93182e-06
0.000227916
-5.18875e-06
0.000231983
-6.31422e-06
0.00023582
-7.30116e-06
0.000239786
-8.1446e-06
0.000243882
-8.84043e-06
0.000248119
-9.383e-06
0.000252499
-9.76716e-06
0.000257024
-9.9881e-06
0.0002617
-1.00433e-05
0.000266545
-9.92419e-06
0.000271542
-9.62442e-06
0.000276712
-9.13839e-06
0.000282056
-8.46195e-06
0.000287583
-7.58659e-06
0.000293298
-6.50553e-06
0.000299199
-5.2148e-06
0.000305308
-3.70406e-06
0.000311618
-1.96697e-06
0.000318143
2.73326e-09
0.000324891
1.97262e-06
0.00032489
3.7085e-06
0.000318143
5.21893e-06
0.000311617
6.51022e-06
0.000305305
7.58994e-06
0.000299199
8.46469e-06
0.000293294
9.14164e-06
0.000287581
9.62654e-06
0.000282056
9.92606e-06
0.00027671
1.00458e-05
0.000271541
9.99145e-06
0.000266539
9.76876e-06
0.000261703
9.38332e-06
0.000257023
8.84029e-06
0.000252496
8.14422e-06
0.000248117
7.30105e-06
0.00024388
6.31435e-06
0.000239784
5.18914e-06
0.000235818
3.93239e-06
0.000231982
2.67449e-06
0.000227915
2.18697e-06
0.000220092
2.13331e-06
0.000204962
1.71284e-06
0.00018796
9.68589e-07
0.000168052
0.000128215
-9.68031e-07
0.000129184
-1.73033e-06
0.000168816
-2.20475e-06
0.000188437
-2.34067e-06
0.000205101
-2.70833e-06
0.000220462
-3.86251e-06
0.00022907
-5.07586e-06
0.000233196
-6.16497e-06
0.000236909
-7.12016e-06
0.000240741
-7.93602e-06
0.000244698
-8.60887e-06
0.000248792
-9.1334e-06
0.000253023
-9.50621e-06
0.000257397
-9.72072e-06
0.000261914
-9.77037e-06
0.000266594
-9.65073e-06
0.000271423
-9.35778e-06
0.000276419
-8.88519e-06
0.000281583
-8.22579e-06
0.000286923
-7.37476e-06
0.000292447
-6.3256e-06
0.00029815
-5.0698e-06
0.000304052
-3.60284e-06
0.000310151
-1.91688e-06
0.000316457
-3.43402e-09
0.000322978
1.90987e-06
0.000322977
3.59692e-06
0.000316456
5.06415e-06
0.00031015
6.31968e-06
0.00030405
7.36993e-06
0.000298149
8.2217e-06
0.000292442
8.88096e-06
0.000286922
9.35438e-06
0.000281582
9.64755e-06
0.000276417
9.76662e-06
0.000271422
9.71655e-06
0.00026659
9.50335e-06
0.000261916
9.13214e-06
0.000257394
8.60811e-06
0.00025302
7.93565e-06
0.000248789
7.11966e-06
0.000244696
6.16442e-06
0.000240739
5.07518e-06
0.000236908
3.8618e-06
0.000233195
2.70919e-06
0.000229068
2.3414e-06
0.00022046
2.20512e-06
0.000205099
1.73034e-06
0.000188435
9.67648e-07
0.000168814
0.000129183
-9.55034e-07
0.000130139
-1.72533e-06
0.000169586
-2.24324e-06
0.000188954
-2.45187e-06
0.000205309
-2.73457e-06
0.000220745
-3.78945e-06
0.000230125
-4.96065e-06
0.000234368
-6.01496e-06
0.000237963
-6.93872e-06
0.000241665
-7.7277e-06
0.000245487
-8.37769e-06
0.000249442
-8.88362e-06
0.000253529
-9.24047e-06
0.000257754
-9.44375e-06
0.000262117
-9.49106e-06
0.000266641
-9.37445e-06
0.000271306
-9.08795e-06
0.000276133
-8.62614e-06
0.000281121
-7.98531e-06
0.000286283
-7.15735e-06
0.000291619
-6.1359e-06
0.000297129
-4.91721e-06
0.000302833
-3.4916e-06
0.000308725
-1.85307e-06
0.000314819
4.24041e-09
0.000321121
1.86175e-06
0.000321119
3.49911e-06
0.000314819
4.9244e-06
0.000308724
6.14351e-06
0.00030283
7.16363e-06
0.000297129
7.99091e-06
0.000291615
8.63212e-06
0.000286281
9.09265e-06
0.000281122
9.37871e-06
0.000276131
9.49578e-06
0.000271304
9.44896e-06
0.000266636
9.24388e-06
0.000262121
8.8856e-06
0.000257752
8.37908e-06
0.000253527
7.72861e-06
0.00024944
6.93968e-06
0.000245485
6.01586e-06
0.000241663
4.96151e-06
0.000237962
3.7902e-06
0.000234367
2.73488e-06
0.000230123
2.45227e-06
0.000220742
2.24365e-06
0.000205307
1.72581e-06
0.000188953
9.55599e-07
0.000169585
0.000130138
-9.37106e-07
0.000131076
-1.70815e-06
0.000170357
-2.25961e-06
0.000189506
-2.53318e-06
0.000205583
-2.76174e-06
0.000220973
-3.71725e-06
0.00023108
-4.84523e-06
0.000235496
-5.8656e-06
0.000238984
-6.75998e-06
0.000242559
-7.52348e-06
0.00024625
-8.15239e-06
0.00025007
-8.6418e-06
0.000254018
-8.98852e-06
0.0002581
-9.18655e-06
0.000262316
-9.22945e-06
0.000266684
-9.11313e-06
0.00027119
-8.83379e-06
0.000275854
-8.38555e-06
0.000280673
-7.76166e-06
0.000285659
-6.95741e-06
0.000290814
-5.96692e-06
0.000296138
-4.78204e-06
0.000301648
-3.39853e-06
0.000307342
-1.8091e-06
0.000313229
-5.70487e-09
0.000319317
1.79754e-06
0.000319316
3.38806e-06
0.000313228
4.77186e-06
0.000307341
5.95662e-06
0.000301646
6.9483e-06
0.000296137
7.75337e-06
0.00029081
8.3774e-06
0.000285657
8.8267e-06
0.000280673
9.10649e-06
0.000275851
9.22261e-06
0.000271188
9.17964e-06
0.000266679
8.98336e-06
0.000262317
8.63845e-06
0.000258097
8.14985e-06
0.000254015
7.52176e-06
0.000250068
6.75858e-06
0.000246248
5.86469e-06
0.000242557
4.84475e-06
0.000238982
3.71738e-06
0.000235494
2.75921e-06
0.000231082
2.53089e-06
0.000220971
2.25773e-06
0.000205581
1.7068e-06
0.000189504
9.36302e-07
0.000170355
0.000131074
-9.1432e-07
0.000131991
-1.68481e-06
0.000171128
-2.26508e-06
0.000190086
-2.59742e-06
0.000205915
-2.79355e-06
0.000221169
-3.64241e-06
0.000231929
-4.7272e-06
0.00023658
-5.71448e-06
0.000239971
-6.57918e-06
0.000243424
-7.31733e-06
0.000246988
-7.92469e-06
0.000250678
-8.3968e-06
0.000254491
-8.72875e-06
0.000258432
-8.91613e-06
0.000262503
-8.95688e-06
0.000266725
-8.84364e-06
0.000271077
-8.5707e-06
0.000275581
-8.13286e-06
0.000280235
-7.52681e-06
0.000285053
-6.74477e-06
0.000290032
-5.78088e-06
0.000295174
-4.63151e-06
0.000300499
-3.28763e-06
0.000305998
-1.74356e-06
0.000311685
6.19929e-09
0.000317567
1.75617e-06
0.000317566
3.2991e-06
0.000311685
4.64265e-06
0.000305997
5.79229e-06
0.000300496
6.75486e-06
0.000295175
7.53611e-06
0.000290028
8.14236e-06
0.00028505
8.57878e-06
0.000280236
8.85107e-06
0.000275579
8.96457e-06
0.000271075
8.92391e-06
0.00026672
8.73447e-06
0.000262507
8.40095e-06
0.000258431
7.92804e-06
0.000254488
7.31985e-06
0.000250676
6.58138e-06
0.000246987
5.71617e-06
0.000243422
4.72841e-06
0.00023997
3.64302e-06
0.00023658
2.79639e-06
0.000231928
2.59952e-06
0.000221167
2.26678e-06
0.000205913
1.68614e-06
0.000190084
9.15153e-07
0.000171126
0.00013199
-8.90459e-07
0.000132881
-1.6581e-06
0.000171895
-2.2602e-06
0.000190688
-2.64144e-06
0.000206297
-2.82788e-06
0.000221356
-3.56716e-06
0.000232668
-4.60768e-06
0.000237621
-5.56402e-06
0.000240927
-6.40226e-06
0.000244262
-7.11746e-06
0.000247704
-7.70607e-06
0.000251266
-8.16349e-06
0.000254948
-8.48671e-06
0.000258755
-8.67033e-06
0.000262687
-8.70801e-06
0.000266763
-8.59598e-06
0.000270965
-8.33065e-06
0.000275315
-7.90656e-06
0.000279811
-7.31735e-06
0.000284463
-6.55849e-06
0.000289274
-5.6246e-06
0.00029424
-4.50793e-06
0.000299382
-3.20449e-06
0.000304695
-1.7075e-06
0.000310188
-9.33626e-09
0.000315869
1.68865e-06
0.000315868
3.1867e-06
0.000310187
4.49042e-06
0.000304693
5.60707e-06
0.000299379
6.54215e-06
0.00029424
7.30184e-06
0.000289269
7.89131e-06
0.000284461
8.31657e-06
0.000279811
8.58239e-06
0.000275313
8.69445e-06
0.000270963
8.6569e-06
0.000266758
8.47522e-06
0.000262688
8.1538e-06
0.000258752
7.69725e-06
0.000254945
7.10962e-06
0.000251263
6.3949e-06
0.000247701
5.55736e-06
0.00024426
4.60165e-06
0.000240925
3.56201e-06
0.000237619
2.82473e-06
0.000232665
2.63909e-06
0.000221353
2.25813e-06
0.000206294
1.65635e-06
0.000190686
8.8921e-07
0.000171893
0.000132879
-8.63081e-07
0.000133744
-1.62621e-06
0.000172659
-2.24578e-06
0.000191308
-2.6627e-06
0.000206713
-2.85424e-06
0.000221547
-3.49173e-06
0.000233306
-4.48596e-06
0.000238615
-5.41093e-06
0.000241852
-6.2212e-06
0.000245072
-6.91258e-06
0.000248395
-7.48095e-06
0.000251835
-7.92234e-06
0.000255389
-8.23198e-06
0.000259065
-8.40551e-06
0.00026286
-8.44122e-06
0.000266799
-8.3323e-06
0.000270856
-8.0733e-06
0.000275056
-7.65926e-06
0.000279397
-7.08721e-06
0.000283891
-6.3496e-06
0.000288536
-5.44118e-06
0.000293332
-4.35838e-06
0.000298299
-3.0928e-06
0.000303429
-1.63905e-06
0.000308734
8.00683e-09
0.000314222
1.6553e-06
0.000314221
3.10796e-06
0.000308734
4.37323e-06
0.000303428
5.45624e-06
0.000298296
6.36342e-06
0.000293332
7.10018e-06
0.000288532
7.67242e-06
0.000283889
8.08507e-06
0.000279398
8.34339e-06
0.000275055
8.45251e-06
0.000270854
8.41672e-06
0.000266793
8.24105e-06
0.000262864
7.92997e-06
0.000259063
7.48785e-06
0.000255387
6.91861e-06
0.000251833
6.22688e-06
0.000248393
5.41604e-06
0.000245071
4.49052e-06
0.000241851
3.4954e-06
0.000238614
2.85633e-06
0.000233305
2.66421e-06
0.000221545
2.24717e-06
0.000206711
1.62746e-06
0.000191306
8.64105e-07
0.000172657
0.000133743
-8.38848e-07
0.000134583
-1.59614e-06
0.000173416
-2.22594e-06
0.000191938
-2.65876e-06
0.000207146
-2.86792e-06
0.000221756
-3.42903e-06
0.000233867
-4.37587e-06
0.000239562
-5.27168e-06
0.000242748
-6.05722e-06
0.000245858
-6.72714e-06
0.000249065
-7.2781e-06
0.000252386
-7.70575e-06
0.000255817
-8.00718e-06
0.000259367
-8.17763e-06
0.00026303
-8.21084e-06
0.000266832
-8.10334e-06
0.000270748
-7.85173e-06
0.000274805
-7.45096e-06
0.000278996
-6.89501e-06
0.000283335
-6.17955e-06
0.00028782
-5.29964e-06
0.000292452
-4.24793e-06
0.000297248
-3.02064e-06
0.000302202
-1.61148e-06
0.000307325
-1.32168e-08
0.000312624
1.58485e-06
0.000312623
2.99508e-06
0.000307324
4.22269e-06
0.0003022
5.27452e-06
0.000297245
6.15571e-06
0.000292451
6.87212e-06
0.000287816
7.42855e-06
0.000283332
7.8307e-06
0.000278996
8.08302e-06
0.000274803
8.19087e-06
0.000270746
8.15817e-06
0.000266826
7.99007e-06
0.000263032
7.69051e-06
0.000259363
7.26404e-06
0.000255813
6.71443e-06
0.000252382
6.04538e-06
0.000249062
5.26097e-06
0.000245855
4.36625e-06
0.000242746
3.42094e-06
0.00023956
2.86199e-06
0.000233863
2.65404e-06
0.000221753
2.22214e-06
0.000207143
1.59325e-06
0.000191935
8.36993e-07
0.000173413
0.00013458
-8.11856e-07
0.000135395
-1.56061e-06
0.000174165
-2.19446e-06
0.000192572
-2.63821e-06
0.00020759
-2.86496e-06
0.000221983
-3.35715e-06
0.000234359
-4.25459e-06
0.000240459
-5.12028e-06
0.000243614
-5.87927e-06
0.000246617
-6.52668e-06
0.000249712
-7.05844e-06
0.000252918
-7.47104e-06
0.00025623
-7.7599e-06