/*--------------------------------*- C++ -*----------------------------------*\
| =========                 |                                                 |
| \\      /  F ield         | OpenFOAM: The Open Source CFD Toolbox           |
|  \\    /   O peration     | Version:  1.7.x                                 |
|   \\  /    A nd           | Web:      www.OpenFOAM.com                      |
|    \\/     M anipulation  |                                                 |
\*---------------------------------------------------------------------------*/
FoamFile
{
    version     2.0;
    format      ascii;
    class       volScalarField;
    location    "1.7";
    object      mut;
}
// * * * * * * * * * * * * * * * * * * * * * * * * * * * * * * * * * * * * * //

dimensions      [1 -1 -1 0 0 0 0];

internalField   nonuniform List<scalar> 
59760
(
9.62798e-07
1.43285e-06
1.62243e-06
1.75972e-06
1.99823e-06
2.03245e-06
2.17173e-06
2.26816e-06
2.21898e-06
2.2099e-06
2.07543e-06
1.65771e-06
1.22424e-06
1.19641e-06
1.31896e-06
1.47713e-06
1.56057e-06
1.47854e-06
1.25145e-06
9.56661e-07
1.02441e-06
1.19184e-06
1.18477e-06
1.19299e-06
1.18597e-06
1.19571e-06
1.19065e-06
1.18533e-06
1.18537e-06
1.16829e-06
1.15134e-06
1.15423e-06
1.17869e-06
1.17825e-06
1.17029e-06
1.14947e-06
1.12973e-06
1.11893e-06
1.10249e-06
9.23336e-07
9.46711e-07
1.09309e-06
1.08122e-06
1.08436e-06
1.07535e-06
1.08466e-06
1.08136e-06
1.08144e-06
1.0883e-06
1.0838e-06
1.07264e-06
1.0713e-06
1.10726e-06
1.11164e-06
1.0708e-06
1.04716e-06
1.03345e-06
1.02734e-06
1.01467e-06
8.95198e-07
9.42266e-07
1.16989e-06
1.16282e-06
1.16251e-06
1.15743e-06
1.16038e-06
1.15796e-06
1.15605e-06
1.15503e-06
1.14977e-06
1.14459e-06
1.14773e-06
1.16417e-06
1.1632e-06
1.14655e-06
1.13101e-06
1.11869e-06
1.1098e-06
1.10916e-06
8.72374e-07
8.78866e-07
1.149e-06
1.14231e-06
1.14056e-06
1.13748e-06
1.13804e-06
1.1374e-06
1.13772e-06
1.13641e-06
1.13485e-06
1.13402e-06
1.13264e-06
1.14339e-06
1.14568e-06
1.12716e-06
1.11245e-06
1.10343e-06
1.09613e-06
1.09918e-06
8.41404e-07
8.53207e-07
1.15376e-06
1.15182e-06
1.15191e-06
1.15076e-06
1.15202e-06
1.15091e-06
1.14867e-06
1.14642e-06
1.14152e-06
1.13786e-06
1.14069e-06
1.13954e-06
1.13394e-06
1.13244e-06
1.12495e-06
1.11669e-06
1.1112e-06
1.10933e-06
8.06182e-07
7.94321e-07
1.13e-06
1.12819e-06
1.12933e-06
1.12991e-06
1.13116e-06
1.13134e-06
1.13075e-06
1.12917e-06
1.12616e-06
1.12298e-06
1.12043e-06
1.12145e-06
1.12061e-06
1.1108e-06
1.10357e-06
1.09777e-06
1.0934e-06
1.0936e-06
7.74152e-07
7.59596e-07
1.08384e-06
1.08366e-06
1.08464e-06
1.08609e-06
1.08692e-06
1.08728e-06
1.08667e-06
1.08523e-06
1.0833e-06
1.08057e-06
1.07816e-06
1.07489e-06
1.0718e-06
1.07011e-06
1.06668e-06
1.06315e-06
1.06019e-06
1.06004e-06
7.2858e-07
7.01729e-07
1.05219e-06
1.05131e-06
1.05224e-06
1.05307e-06
1.05367e-06
1.05383e-06
1.05337e-06
1.05225e-06
1.0506e-06
1.04892e-06
1.04762e-06
1.04667e-06
1.04547e-06
1.04199e-06
1.03886e-06
1.03606e-06
1.03383e-06
1.03271e-06
6.98086e-07
6.66586e-07
9.94966e-07
9.94375e-07
9.94851e-07
9.95205e-07
9.95512e-07
9.95553e-07
9.95268e-07
9.9467e-07
9.93774e-07
9.92715e-07
9.92002e-07
9.9108e-07
9.89916e-07
9.88938e-07
9.87544e-07
9.86245e-07
9.85273e-07
9.84198e-07
6.44394e-07
6.08661e-07
9.60314e-07
9.59696e-07
9.5973e-07
9.59762e-07
9.5973e-07
9.59557e-07
9.59204e-07
9.58765e-07
9.58235e-07
9.57687e-07
9.56965e-07
9.56055e-07
9.55456e-07
9.54385e-07
9.53214e-07
9.52353e-07
9.51824e-07
9.51888e-07
6.13878e-07
5.73635e-07
8.96054e-07
8.95867e-07
8.95955e-07
8.95905e-07
8.95715e-07
8.95467e-07
8.9515e-07
8.94747e-07
8.94251e-07
8.93747e-07
8.9332e-07
8.93012e-07
8.92493e-07
8.9215e-07
8.91687e-07
8.91353e-07
8.90945e-07
8.90384e-07
5.57799e-07
5.14999e-07
8.47731e-07
8.4771e-07
8.47749e-07
8.47724e-07
8.47613e-07
8.47405e-07
8.47148e-07
8.46899e-07
8.46645e-07
8.46417e-07
8.46199e-07
8.4595e-07
8.45755e-07
8.454e-07
8.45129e-07
8.44531e-07
8.4437e-07
8.44049e-07
5.25562e-07
4.79518e-07
7.65312e-07
7.65257e-07
7.65251e-07
7.65241e-07
7.65188e-07
7.65117e-07
7.6504e-07
7.65043e-07
7.65049e-07
7.65079e-07
7.65062e-07
7.65003e-07
7.6489e-07
7.64777e-07
7.64558e-07
7.64573e-07
7.64376e-07
7.64125e-07
4.67562e-07
4.20541e-07
7.02314e-07
7.0241e-07
7.02415e-07
7.0241e-07
7.02448e-07
7.025e-07
7.02554e-07
7.02509e-07
7.02464e-07
7.02434e-07
7.02417e-07
7.024e-07
7.02281e-07
7.02189e-07
7.02268e-07
7.02563e-07
7.0258e-07
7.02662e-07
4.33198e-07
1.0566e-06
2.77749e-06
4.1124e-06
7.71474e-06
9.4057e-06
9.6668e-06
1.00732e-05
1.02447e-05
1.01813e-05
1.00946e-05
9.61435e-06
8.41063e-06
7.25694e-06
7.00456e-06
7.24866e-06
7.99755e-06
7.58596e-06
4.22009e-06
2.10107e-06
9.30054e-07
1.05216e-06
3.29109e-06
3.38266e-06
4.70929e-06
4.8872e-06
5.01821e-06
5.1331e-06
5.20073e-06
5.24557e-06
5.23924e-06
5.05766e-06
4.71729e-06
4.59273e-06
4.4691e-06
4.43114e-06
4.50989e-06
4.58739e-06
3.25341e-06
2.54079e-06
9.21893e-07
1.05685e-06
4.39184e-06
4.16178e-06
4.38292e-06
4.35326e-06
4.41158e-06
4.39575e-06
4.41826e-06
4.46364e-06
4.43416e-06
4.37468e-06
4.40815e-06
4.59903e-06
4.63938e-06
4.38517e-06
4.23321e-06
4.15021e-06
3.76066e-06
3.34537e-06
9.2629e-07
1.03543e-06
4.90908e-06
4.64633e-06
4.50031e-06
4.34401e-06
4.32235e-06
4.2661e-06
4.23587e-06
4.20859e-06
4.17522e-06
4.2181e-06
4.40412e-06
4.79717e-06
5.01882e-06
4.7974e-06
4.51101e-06
4.30224e-06
4.18605e-06
4.18319e-06
9.37572e-07
1.03083e-06
6.06081e-06
5.74878e-06
5.60437e-06
5.49953e-06
5.44955e-06
5.39959e-06
5.35672e-06
5.31233e-06
5.28435e-06
5.31206e-06
5.48374e-06
5.85755e-06
6.00326e-06
5.75115e-06
5.54026e-06
5.39124e-06
5.35715e-06
5.38826e-06
9.40982e-07
9.83794e-07
7.11278e-06
6.7048e-06
6.49831e-06
6.33413e-06
6.24641e-06
6.16667e-06
6.10674e-06
6.07685e-06
6.07659e-06
6.21201e-06
6.51018e-06
6.52277e-06
6.73813e-06
6.83128e-06
6.6019e-06
6.44889e-06
6.43857e-06
6.85205e-06
9.14786e-07
9.62725e-07
8.40323e-06
7.99949e-06
7.87845e-06
7.74801e-06
7.68182e-06
7.62783e-06
7.59757e-06
7.60754e-06
7.59791e-06
7.57018e-06
7.61168e-06
8.15321e-06
8.41147e-06
8.11076e-06
7.98614e-06
7.92931e-06
8.00526e-06
8.28034e-06
9.0573e-07
8.92584e-07
1.20291e-05
1.17147e-05
1.1305e-05
1.11127e-05
1.08417e-05
1.07223e-05
1.06446e-05
1.06513e-05
1.09321e-05
1.12174e-05
1.14326e-05
1.11891e-05
1.10815e-05
1.16416e-05
1.17124e-05
1.17665e-05
1.16182e-05
1.19753e-05
8.53541e-07
8.59945e-07
1.40379e-05
1.36878e-05
1.35328e-05
1.34234e-05
1.33438e-05
1.33003e-05
1.32908e-05
1.33126e-05
1.32907e-05
1.33227e-05
1.33136e-05
1.35447e-05
1.34568e-05
1.32731e-05
1.31909e-05
1.31822e-05
1.30652e-05
1.24367e-05
8.33025e-07
7.93391e-07
2.0929e-05
2.11172e-05
2.15167e-05
2.16555e-05
2.1801e-05
2.18701e-05
2.19526e-05
2.18092e-05
2.16907e-05
2.12814e-05
2.07584e-05
1.97795e-05
1.93834e-05
1.90664e-05
1.91904e-05
1.89248e-05
1.84831e-05
1.80332e-05
7.78155e-07
7.64086e-07
2.61217e-05
2.60384e-05
2.63713e-05
2.65336e-05
2.68332e-05
2.69471e-05
2.69966e-05
2.67093e-05
2.65309e-05
2.62892e-05
2.62511e-05
2.66304e-05
2.70354e-05
2.61929e-05
2.57952e-05
2.52022e-05
2.51387e-05
2.37043e-05
7.5177e-07
6.94629e-07
6.86924e-05
6.91806e-05
6.85766e-05
6.8073e-05
6.7937e-05
6.7962e-05
6.76467e-05
6.7099e-05
6.6305e-05
6.58625e-05
6.60334e-05
6.45063e-05
6.38343e-05
6.3595e-05
6.15349e-05
5.91305e-05
5.50894e-05
5.17907e-05
6.86874e-07
6.58351e-07
0.000171913
0.0001847
0.000181409
0.000176994
0.000166783
0.000154026
0.000145358
0.000140561
0.000135952
0.000132072
0.000128263
0.000124735
0.000129077
0.000124274
0.000123771
0.000120957
0.000117865
0.000115084
6.54674e-07
5.85232e-07
0.000214399
0.000206774
0.000194506
0.000182322
0.000176
0.00017738
0.000182807
0.000189497
0.000196723
0.000209051
0.000205083
0.000211362
0.000202021
0.000208174
0.000197858
0.000179141
0.000175347
0.00018765
5.84067e-07
5.47789e-07
0.000333696
0.000359983
0.000358975
0.000356669
0.000344387
0.000322083
0.000285759
0.000252033
0.000240739
0.000229513
0.000224499
0.000213326
0.000226244
0.000262795
0.000306136
0.000335158
0.000460807
0.000554655
5.47636e-07
1.03447e-06
6.0474e-06
1.20039e-05
2.20956e-05
2.05318e-05
2.09036e-05
2.0982e-05
2.10334e-05
2.11027e-05
2.08163e-05
2.02815e-05
1.93195e-05
1.96881e-05
1.96297e-05
1.84259e-05
1.79988e-05
1.94156e-05
1.08954e-05
4.35817e-06
8.5794e-07
1.04591e-06
5.5695e-06
1.11247e-05
2.12003e-05
2.02608e-05
2.05666e-05
2.07301e-05
2.08463e-05
2.08708e-05
2.06718e-05
2.02076e-05
1.93165e-05
1.70724e-05
1.66634e-05
1.74864e-05
1.83066e-05
1.98269e-05
1.08352e-05
4.44825e-06
8.60194e-07
1.04895e-06
5.38485e-06
9.62074e-06
1.77036e-05
1.69343e-05
1.71648e-05
1.72513e-05
1.72938e-05
1.72593e-05
1.70304e-05
1.67038e-05
1.6247e-05
1.58836e-05
1.56944e-05
1.51669e-05
1.5303e-05
1.62158e-05
8.8987e-06
4.12263e-06
8.81333e-07
1.04835e-06
4.6627e-06
8.008e-06
1.44625e-05
1.40003e-05
1.41539e-05
1.41965e-05
1.4197e-05
1.4138e-05
1.39207e-05
1.36548e-05
1.33662e-05
1.29719e-05
1.26493e-05
1.27311e-05
1.28414e-05
1.32294e-05
7.37651e-06
3.8687e-06
9.0475e-07
1.04755e-06
4.47104e-06
6.38273e-06
1.06764e-05
1.10678e-05
1.11599e-05
1.11823e-05
1.1167e-05
1.10738e-05
1.09098e-05
1.07302e-05
1.05998e-05
1.03259e-05
1.01284e-05
1.0098e-05
1.0083e-05
9.74568e-06
5.84497e-06
3.9012e-06
9.27674e-07
1.02832e-06
3.97583e-06
5.09105e-06
8.04046e-06
8.18208e-06
8.25127e-06
8.27402e-06
8.25154e-06
8.19416e-06
8.06492e-06
7.91295e-06
7.79122e-06
7.74591e-06
7.75823e-06
7.62199e-06
7.54028e-06
7.43291e-06
4.77682e-06
3.78557e-06
9.293e-07
1.02381e-06
4.57011e-06
4.61655e-06
5.479e-06
5.8688e-06
5.88207e-06
5.89839e-06
5.87962e-06
5.85281e-06
5.82773e-06
5.79467e-06
5.79177e-06
5.75581e-06
5.7502e-06
5.78425e-06
5.75896e-06
5.40307e-06
4.59282e-06
4.59421e-06
9.47651e-07
9.7765e-07
4.45486e-06
4.36953e-06
4.58525e-06
4.67636e-06
4.69192e-06
4.69769e-06
4.6985e-06
4.69011e-06
4.68325e-06
4.68192e-06
4.70838e-06
4.7323e-06
4.74543e-06
4.70904e-06
4.66249e-06
4.53865e-06
4.35547e-06
4.54063e-06
9.12461e-07
9.53268e-07
6.22769e-06
6.16576e-06
6.14206e-06
6.15242e-06
6.14629e-06
6.15623e-06
6.15425e-06
6.17595e-06
6.17307e-06
6.18334e-06
6.14692e-06
6.10598e-06
6.05708e-06
6.10926e-06
6.09239e-06
6.13749e-06
6.11042e-06
6.39324e-06
9.11981e-07
8.70099e-07
7.24906e-06
7.13137e-06
7.0538e-06
7.02441e-06
6.97404e-06
6.95838e-06
6.93551e-06
6.95225e-06
6.94909e-06
6.98412e-06
6.95594e-06
7.00502e-06
6.95762e-06
6.95175e-06
6.86479e-06
6.868e-06
6.83302e-06
6.74349e-06
8.36945e-07
8.19944e-07
1.28302e-05
1.27031e-05
1.27113e-05
1.2622e-05
1.26079e-05
1.25669e-05
1.26104e-05
1.26102e-05
1.26519e-05
1.25705e-05
1.25657e-05
1.23727e-05
1.24253e-05
1.25079e-05
1.27673e-05
1.28547e-05
1.2897e-05
1.29698e-05
8.06258e-07
7.28128e-07
2.22606e-05
2.1698e-05
2.13668e-05
2.10552e-05
2.08776e-05
2.07137e-05
2.06843e-05
2.06949e-05
2.09886e-05
2.14107e-05
2.18786e-05
2.23784e-05
2.25023e-05
2.19692e-05
2.17586e-05
2.13617e-05
2.14812e-05
2.07251e-05
7.15957e-07
6.79026e-07
6.14429e-05
6.14817e-05
6.09825e-05
6.02431e-05
5.97078e-05
5.9598e-05
5.97508e-05
5.98699e-05
5.99437e-05
6.00294e-05
6.06824e-05
6.14138e-05
6.26584e-05
6.40273e-05
6.46067e-05
6.47863e-05
6.46247e-05
6.03482e-05
6.7553e-07
5.9507e-07
0.000177286
0.000186251
0.000182564
0.000181035
0.000180636
0.00017887
0.000178456
0.00017742
0.000182416
0.000184574
0.000185389
0.000180188
0.000158378
0.000151567
0.000160407
0.00016369
0.000172522
0.00021142
5.93094e-07
5.51716e-07
0.000381551
0.00038131
0.000359099
0.000332213
0.00030626
0.000286676
0.000267592
0.000255441
0.00023477
0.000222302
0.000215277
0.00024245
0.000325673
0.000394164
0.000397312
0.000375697
0.000390353
0.000362235
5.52196e-07
1.01365e-06
3.11209e-06
3.62067e-06
3.35205e-06
3.36308e-06
3.38448e-06
3.39196e-06
3.39524e-06
3.39471e-06
3.37362e-06
3.3265e-06
3.29095e-06
3.25374e-06
3.47278e-06
3.37403e-06
3.3152e-06
3.31715e-06
3.55328e-06
2.74356e-06
8.9227e-07
9.96699e-07
4.19151e-06
4.00043e-06
3.90211e-06
3.82547e-06
3.81531e-06
3.78744e-06
3.78379e-06
3.82017e-06
3.84262e-06
3.89142e-06
4.09301e-06
4.39884e-06
4.74595e-06
4.5552e-06
4.44654e-06
4.66237e-06
4.77972e-06
4.21663e-06
8.70989e-07
1.00694e-06
5.09489e-06
5.01986e-06
4.94779e-06
4.88449e-06
4.87433e-06
4.84155e-06
4.82628e-06
4.84533e-06
4.84879e-06
4.88032e-06
5.0565e-06
5.34402e-06
5.52086e-06
5.39736e-06
5.34376e-06
5.2199e-06
5.0299e-06
4.56343e-06
8.77679e-07
9.83441e-07
4.95905e-06
4.82579e-06
4.78194e-06
4.7437e-06
4.73498e-06
4.72701e-06
4.73957e-06
4.74774e-06
4.78244e-06
4.83525e-06
4.98219e-06
5.20876e-06
5.35173e-06
5.35999e-06
5.44003e-06
5.51894e-06
5.55319e-06
5.78836e-06
8.75776e-07
9.90435e-07
5.86025e-06
5.76655e-06
5.77803e-06
5.76629e-06
5.75962e-06
5.74885e-06
5.74899e-06
5.77072e-06
5.79781e-06
5.84403e-06
5.94022e-06
6.02871e-06
6.15461e-06
6.22922e-06
6.24385e-06
6.35331e-06
6.21133e-06
6.26234e-06
8.83656e-07
9.57863e-07
6.50936e-06
6.37647e-06
6.33434e-06
6.30584e-06
6.28188e-06
6.26852e-06
6.24889e-06
6.26299e-06
6.28774e-06
6.35656e-06
6.45592e-06
6.57875e-06
6.63828e-06
6.69371e-06
6.77928e-06
6.84331e-06
6.47947e-06
6.14135e-06
8.74415e-07
9.60272e-07
8.12888e-06
8.12804e-06
8.25222e-06
8.35045e-06
8.41578e-06
8.47194e-06
8.4804e-06
8.50991e-06
8.47931e-06
8.42684e-06
8.31076e-06
8.14084e-06
8.16869e-06
8.28659e-06
8.44677e-06
8.40663e-06
8.22092e-06
8.03903e-06
8.80151e-07
9.14247e-07
9.99193e-06
9.96107e-06
1.00876e-05
1.01775e-05
1.0249e-05
1.02755e-05
1.02839e-05
1.0243e-05
1.01481e-05
9.97675e-06
9.80641e-06
9.65919e-06
9.55155e-06
9.41924e-06
9.38963e-06
9.22446e-06
8.32006e-06
7.30972e-06
8.58678e-07
9.0531e-07
1.00623e-05
1.02006e-05
1.05644e-05
1.08796e-05
1.11668e-05
1.13469e-05
1.14233e-05
1.1331e-05
1.10973e-05
1.07376e-05
1.0476e-05
1.01489e-05
1.0024e-05
9.97791e-06
9.98713e-06
9.58805e-06
9.62992e-06
1.00126e-05
8.57518e-07
8.47471e-07
1.59512e-05
1.62582e-05
1.65625e-05
1.70535e-05
1.7275e-05
1.75388e-05
1.7471e-05
1.73416e-05
1.68491e-05
1.64184e-05
1.57185e-05
1.5392e-05
1.48107e-05
1.44561e-05
1.36712e-05
1.33186e-05
1.17539e-05
1.04625e-05
8.15559e-07
8.21394e-07
1.86381e-05
1.89499e-05
1.93245e-05
1.97594e-05
2.00191e-05
2.01922e-05
2.00918e-05
1.9825e-05
1.92283e-05
1.85338e-05
1.77467e-05
1.70279e-05
1.63315e-05
1.59078e-05
1.53652e-05
1.48173e-05
1.51925e-05
1.52478e-05
8.0212e-07
7.42647e-07
3.64001e-05
3.68868e-05
3.75706e-05
3.79932e-05
3.83233e-05
3.82175e-05
3.78993e-05
3.70887e-05
3.60727e-05
3.46045e-05
3.31432e-05
3.15859e-05
3.04729e-05
2.92735e-05
2.84518e-05
2.73653e-05
2.50687e-05
2.30609e-05
7.2983e-07
6.97608e-07
8.4298e-05
8.60492e-05
8.61499e-05
8.62468e-05
8.57195e-05
8.44375e-05
8.23663e-05
7.96372e-05
7.6344e-05
7.2864e-05
6.87257e-05
6.45537e-05
6.03164e-05
5.63838e-05
5.27655e-05
4.96677e-05
5.05227e-05
4.84563e-05
6.9554e-07
6.0515e-07
0.000129344
0.000135633
0.000134386
0.000131692
0.000128806
0.000125594
0.000122248
0.000118412
0.000113745
0.000107884
0.000103411
9.79542e-05
9.70397e-05
9.84613e-05
9.94365e-05
0.000100127
0.000103695
0.000114292
6.04431e-07
5.53029e-07
0.000440234
0.000440298
0.000411835
0.000388835
0.000362656
0.000338766
0.00031719
0.000301649
0.000291759
0.00029193
0.00030166
0.000318395
0.000320969
0.000321394
0.000320638
0.000312166
0.000321518
0.000301177
5.56685e-07
1.26319e-06
1.53551e-05
1.51157e-05
1.50993e-05
1.51391e-05
1.51487e-05
1.51478e-05
1.51601e-05
1.51855e-05
1.52382e-05
1.52688e-05
1.52307e-05
1.5297e-05
1.54138e-05
1.54113e-05
1.55808e-05
1.57763e-05
1.60415e-05
1.71439e-05
1.13723e-06
1.1447e-06
1.41497e-05
1.38056e-05
1.36951e-05
1.36095e-05
1.35525e-05
1.35213e-05
1.35213e-05
1.35555e-05
1.36301e-05
1.37551e-05
1.39302e-05
1.4144e-05
1.4349e-05
1.44792e-05
1.46726e-05
1.48617e-05
1.50971e-05
1.59977e-05
1.02257e-06
1.12456e-06
1.33552e-05
1.30087e-05
1.28795e-05
1.2773e-05
1.27034e-05
1.2672e-05
1.26744e-05
1.27117e-05
1.27918e-05
1.29324e-05
1.31506e-05
1.34091e-05
1.36511e-05
1.37924e-05
1.39938e-05
1.42184e-05
1.4066e-05
1.53955e-05
9.92018e-07
1.06248e-06
1.15781e-05
1.11374e-05
1.10146e-05
1.09189e-05
1.0857e-05
1.08261e-05
1.08376e-05
1.08929e-05
1.10019e-05
1.11619e-05
1.1383e-05
1.16654e-05
1.19216e-05
1.2086e-05
1.23715e-05
1.26311e-05
1.34381e-05
1.49354e-05
9.57156e-07
1.06337e-06
1.21572e-05
9.30517e-06
9.3222e-06
9.35445e-06
9.38767e-06
9.40966e-06
9.39751e-06
9.32485e-06
9.20879e-06
9.1045e-06
9.01929e-06
8.98325e-06
8.86364e-06
8.69856e-06
8.59027e-06
8.4766e-06
8.43246e-06
1.36807e-05
9.58977e-07
1.05277e-06
9.81368e-06
6.1793e-06
6.23576e-06
6.26702e-06
6.28876e-06
6.31092e-06
6.30816e-06
6.25782e-06
6.17026e-06
6.05626e-06
5.98571e-06
5.89167e-06
5.82833e-06
5.73884e-06
5.6547e-06
5.47844e-06
5.34647e-06
7.74233e-06
9.46834e-07
1.0632e-06
4.75352e-06
4.12712e-06
4.16726e-06
4.20348e-06
4.23252e-06
4.24943e-06
4.25546e-06
4.24433e-06
4.22336e-06
4.19294e-06
4.18159e-06
4.17154e-06
4.171e-06
4.21503e-06
4.28496e-06
4.40278e-06
4.80867e-06
5.64976e-06
9.7333e-07
1.05396e-06
3.83737e-06
3.75671e-06
3.75179e-06
3.75335e-06
3.75752e-06
3.76439e-06
3.76757e-06
3.77726e-06
3.78853e-06
3.80628e-06
3.83802e-06
3.87028e-06
3.90384e-06
3.90817e-06
3.88559e-06
3.83923e-06
3.96409e-06
4.12582e-06
9.55204e-07
1.00681e-06
4.23596e-06
4.14085e-06
4.0997e-06
4.05771e-06
4.02975e-06
4.00204e-06
3.99561e-06
3.99573e-06
4.01618e-06
4.03331e-06
4.05216e-06
4.05502e-06
4.05632e-06
4.04252e-06
4.06637e-06
4.06868e-06
4.17689e-06
4.16517e-06
9.64275e-07
9.66612e-07
6.35065e-06
6.25226e-06
6.24015e-06
6.22436e-06
6.21755e-06
6.21129e-06
6.211e-06
6.20932e-06
6.21648e-06
6.22067e-06
6.25144e-06
6.27574e-06
6.30627e-06
6.32183e-06
6.34091e-06
6.26152e-06
6.26005e-06
6.57049e-06
8.9904e-07
8.67447e-07
9.85546e-06
9.78592e-06
9.73993e-06
9.73074e-06
9.69417e-06
9.67741e-06
9.6372e-06
9.61276e-06
9.55701e-06
9.51456e-06
9.42333e-06
9.36131e-06
9.23554e-06
9.12468e-06
8.8933e-06
8.79789e-06
8.49017e-06
8.18203e-06
8.62333e-07
8.05266e-07
1.64752e-05
1.63946e-05
1.63723e-05
1.63619e-05
1.63488e-05
1.63306e-05
1.62879e-05
1.62164e-05
1.6104e-05
1.59402e-05
1.57591e-05
1.556e-05
1.53225e-05
1.51172e-05
1.49804e-05
1.47352e-05
1.47002e-05
1.49858e-05
7.71107e-07
6.99743e-07
3.15503e-05
3.16116e-05
3.15548e-05
3.14725e-05
3.13467e-05
3.1161e-05
3.08931e-05
3.05302e-05
3.00504e-05
2.94515e-05
2.88083e-05
2.81568e-05
2.75166e-05
2.68966e-05
2.63723e-05
2.59322e-05
2.49097e-05
2.39216e-05
7.1631e-07
6.40143e-07
8.05241e-05
8.19619e-05
8.20119e-05
8.19167e-05
8.15262e-05
8.08225e-05
7.9728e-05
7.82878e-05
7.64818e-05
7.45479e-05
7.24203e-05
7.02964e-05
6.82692e-05
6.61621e-05
6.38425e-05
6.25625e-05
6.2402e-05
5.95645e-05
6.16414e-07
5.37983e-07
0.00030981
0.000328439
0.00031569
0.000297817
0.000275413
0.000252634
0.000232141
0.000215023
0.000201126
0.000190578
0.000181636
0.000173522
0.000168211
0.000164976
0.000163155
0.000163243
0.000172136
0.000183643
5.61042e-07
8.05221e-07
7.66912e-07
7.6549e-07
7.65012e-07
7.6486e-07
7.64719e-07
7.64798e-07
7.64845e-07
7.64781e-07
7.6426e-07
7.64389e-07
7.64969e-07
7.65034e-07
7.65689e-07
7.66787e-07
7.69278e-07
7.73048e-07
7.76125e-07
7.82606e-07
7.52694e-07
7.25607e-07
7.04454e-07
7.03036e-07
7.02362e-07
7.0199e-07
7.01708e-07
7.01598e-07
7.01483e-07
7.01295e-07
7.0073e-07
7.00792e-07
7.01247e-07
7.01411e-07
7.01508e-07
7.02098e-07
7.03748e-07
7.06191e-07
7.09098e-07
7.13962e-07
6.88643e-07
6.923e-07
6.72083e-07
6.70747e-07
6.70124e-07
6.69789e-07
6.69518e-07
6.69412e-07
6.69278e-07
6.69077e-07
6.68551e-07
6.68616e-07
6.6884e-07
6.68833e-07
6.68906e-07
6.69361e-07
6.71023e-07
6.73188e-07
6.74046e-07
6.77886e-07
6.56515e-07
6.62403e-07
6.55465e-07
6.53819e-07
6.52937e-07
6.52366e-07
6.5193e-07
6.51665e-07
6.51424e-07
6.51185e-07
6.50756e-07
6.50969e-07
6.51375e-07
6.5169e-07
6.51577e-07
6.51817e-07
6.53145e-07
6.55268e-07
6.56589e-07
6.61586e-07
6.28329e-07
6.55715e-07
6.54927e-07
6.53403e-07
6.5271e-07
6.5219e-07
6.51747e-07
6.51458e-07
6.51077e-07
6.50723e-07
6.50057e-07
6.49872e-07
6.49664e-07
6.49046e-07
6.48393e-07
6.47996e-07
6.48413e-07
6.50077e-07
6.5244e-07
6.55784e-07
6.15478e-07
6.26818e-07
6.44857e-07
6.43577e-07
6.43121e-07
6.42904e-07
6.42692e-07
6.42479e-07
6.41963e-07
6.41285e-07
6.40299e-07
6.39733e-07
6.38882e-07
6.37815e-07
6.36019e-07
6.34972e-07
6.34638e-07
6.34364e-07
6.36332e-07
6.38618e-07
5.88428e-07
6.39016e-07
6.70285e-07
6.69204e-07
6.69013e-07
6.68923e-07
6.68654e-07
6.68321e-07
6.67745e-07
6.6686e-07
6.65502e-07
6.64245e-07
6.6228e-07
6.59809e-07
6.56691e-07
6.54543e-07
6.52957e-07
6.50621e-07
6.49725e-07
6.46829e-07
5.8777e-07
6.11086e-07
6.79275e-07
6.79376e-07
6.80265e-07
6.8091e-07
6.81267e-07
6.81046e-07
6.80179e-07
6.78646e-07
6.76503e-07
6.73962e-07
6.7044e-07
6.66877e-07
6.62226e-07
6.59074e-07
6.55797e-07
6.51431e-07
6.47052e-07
6.43032e-07
5.67183e-07
6.22202e-07
7.00594e-07
7.00186e-07
7.00675e-07
7.01158e-07
7.01239e-07
7.01198e-07
7.00512e-07
6.99445e-07
6.97513e-07
6.95603e-07
6.93198e-07
6.90096e-07
6.86211e-07
6.83733e-07
6.80498e-07
6.76042e-07
6.7224e-07
6.662e-07
5.7445e-07
5.82481e-07
7.03731e-07
7.05186e-07
7.07129e-07
7.0855e-07
7.09576e-07
7.09417e-07
7.08328e-07
7.06335e-07
7.03537e-07
6.99707e-07
6.93831e-07
6.88599e-07
6.82779e-07
6.7821e-07
6.72465e-07
6.66785e-07
6.60474e-07
6.56833e-07
5.48149e-07
5.79666e-07
6.91851e-07
6.90775e-07
6.90601e-07
6.90651e-07
6.90347e-07
6.90401e-07
6.90028e-07
6.8953e-07
6.88405e-07
6.87584e-07
6.87558e-07
6.85777e-07
6.84113e-07
6.83653e-07
6.81971e-07
6.79802e-07
6.7845e-07
6.73919e-07
5.50494e-07
5.27758e-07
6.80468e-07
6.82655e-07
6.84664e-07
6.85921e-07
6.8712e-07
6.86629e-07
6.85544e-07
6.83599e-07
6.80623e-07
6.76552e-07
6.70486e-07
6.66147e-07
6.62796e-07
6.57905e-07
6.54724e-07
6.52202e-07
6.50679e-07
6.50155e-07
5.11364e-07
5.08689e-07
6.47491e-07
6.46989e-07
6.4722e-07
6.47375e-07
6.47411e-07
6.47267e-07
6.46934e-07
6.46398e-07
6.45653e-07
6.45368e-07
6.49921e-07
6.52867e-07
6.53971e-07
6.55318e-07
6.55673e-07
6.54356e-07
6.52811e-07
6.50619e-07
4.98621e-07
4.49846e-07
6.34165e-07
6.34751e-07
6.34792e-07
6.34794e-07
6.34738e-07
6.34626e-07
6.34447e-07
6.3419e-07
6.33882e-07
6.32175e-07
6.25511e-07
6.2099e-07
6.16451e-07
6.16002e-07
6.15451e-07
6.14891e-07
6.14738e-07
6.14853e-07
4.46425e-07
4.20339e-07
5.91955e-07
5.91962e-07
5.91995e-07
5.92018e-07
5.92027e-07
5.9202e-07
5.91994e-07
5.91945e-07
5.91873e-07
5.91762e-07
5.9813e-07
6.02759e-07
6.07486e-07
6.07463e-07
6.07301e-07
6.07173e-07
6.07035e-07
6.06809e-07
4.19423e-07
0.0319482
0.0370503
0.0375914
0.0379905
0.0382647
0.0384239
0.0384786
0.0384713
0.0384311
0.0383508
0.038211
0.037987
0.0376569
0.0372182
0.0360379
0.0280922
0.0260306
0.0319809
0.0327331
0.0333287
0.033778
0.0340915
0.0342757
0.0343485
0.0343321
0.034211
0.033984
0.0336477
0.0331978
0.0326283
0.0298948
0.0226901
0.026688
0.0306784
0.0315046
0.0321708
0.0326866
0.0330581
0.0332877
0.0333874
0.0333923
0.0332787
0.033048
0.0326996
0.0322314
0.0316394
0.0309071
0.0238193
0.0308569
0.0322505
0.0332907
0.0341414
0.0348151
0.0353216
0.0356634
0.0358436
0.0358975
0.035803
0.0355634
0.0351791
0.0346495
0.0339694
0.0331272
0.0289232
0.0332217
0.0348093
0.0360226
0.0370337
0.037851
0.0384815
0.0389283
0.0391867
0.0392917
0.0392268
0.0389894
0.0385814
0.0380021
0.0372465
0.0362984
0.0349662
0.036269
0.0380072
0.0393524
0.0404762
0.0413883
0.0420966
0.0426048
0.0429066
0.0430363
0.0429764
0.0427218
0.042275
0.041635
0.0407966
0.0397408
0.0383963
0.039781
0.0415809
0.0429873
0.0441585
0.0451056
0.0458368
0.0463545
0.0466543
0.0467728
0.0466847
0.0463879
0.0458847
0.045173
0.0442458
0.0430834
0.0416049
0.043707
0.0455187
0.0469364
0.0481056
0.0490408
0.0497524
0.0502409
0.0505081
0.0505895
0.0504553
0.050106
0.0495436
0.0487638
0.0477596
0.0465099
0.0449272
0.0475656
0.0493672
0.0507781
0.0519321
0.0528455
0.0535298
0.0539849
0.0542187
0.0542607
0.0540848
0.0536919
0.0530814
0.0522474
0.0511835
0.0498684
0.0482145
0.0510032
0.0528321
0.0542596
0.0554204
0.0563332
0.0570107
0.0574537
0.0576719
0.0576943
0.0574928
0.0570678
0.0564191
0.0555423
0.05443
0.0530599
0.0513509
0.0537357
0.0556995
0.0572415
0.0584832
0.0594482
0.0601568
0.060614
0.0608336
0.0608541
0.0606436
0.0602006
0.0595219
0.0586036
0.0574346
0.0559906
0.0541825
0.055653
0.0577206
0.0592397
0.0604331
0.0613559
0.062037
0.0624786
0.0626948
0.0627282
0.0625422
0.0621356
0.0615042
0.0606399
0.0595316
0.058153
0.0494068
0.056718
0.0588619
0.060414
0.0616547
0.0626248
0.0633492
0.0638252
0.0640608
0.0641123
0.0639365
0.0635323
0.062898
0.0620306
0.0609251
0.0577993
0.0453141
0.0565193
0.059673
0.0612342
0.0624774
0.0634548
0.064188
0.0646781
0.0649257
0.064999
0.0648494
0.0644758
0.0638763
0.0630482
0.0605316
0.0559809
0.043619
0.0579648
0.0601277
0.0616371
0.0628521
0.0638062
0.064526
0.0650163
0.0652675
0.0653564
0.0652306
0.0648893
0.0643304
0.0635496
0.0625415
0.05807
0.04421
0.036458
0.0371942
0.0377402
0.0381365
0.038396
0.0385287
0.0385478
0.0385135
0.0384706
0.0384183
0.038316
0.0381102
0.037779
0.037324
0.0367272
0.0359548
0.0312456
0.0322032
0.032958
0.0335474
0.0339894
0.0342984
0.0344839
0.0345571
0.0345353
0.0344092
0.0341751
0.0338265
0.0333545
0.0327465
0.0319821
0.0310322
0.0298792
0.0309189
0.0317509
0.032412
0.0329212
0.033289
0.0335215
0.0336242
0.0336212
0.0334979
0.0332519
0.0328798
0.0323763
0.0317319
0.0309292
0.0299399
0.0312782
0.0325371
0.0335791
0.0344274
0.0350982
0.0356024
0.0359462
0.0361296
0.0361762
0.0360739
0.0358199
0.0354118
0.0348442
0.0341087
0.0331929
0.0320716
0.0337381
0.0351796
0.0363951
0.0374051
0.0382214
0.0388519
0.0393017
0.0395664
0.0396674
0.0395968
0.039347
0.0389158
0.0382982
0.0374858
0.036466
0.0352165
0.0368947
0.0384796
0.0398247
0.0409478
0.0418605
0.0425705
0.0430833
0.0433937
0.0435223
0.0434604
0.0431974
0.0427315
0.0420558
0.0411592
0.040027
0.038634
0.0404921
0.0421433
0.0435481
0.04472
0.0456695
0.0464045
0.0469298
0.0472395
0.0473578
0.0472708
0.0469681
0.0464459
0.0456956
0.0447071
0.0434649
0.0419423
0.0444642
0.0461343
0.0475481
0.0487181
0.0496567
0.0503729
0.0508706
0.0511469
0.0512286
0.0510956
0.0507413
0.05016
0.0493413
0.0482741
0.0469422
0.0453168
0.0483263
0.0499966
0.0514035
0.0525594
0.0534774
0.0541676
0.0546329
0.0548748
0.0549181
0.0547437
0.0543462
0.0537168
0.0528441
0.0517168
0.0503185
0.0486202
0.0517519
0.0534532
0.0548791
0.0560444
0.0569637
0.0576489
0.0581048
0.058333
0.0583577
0.0581581
0.0577277
0.0570587
0.0561431
0.0549679
0.0535166
0.0517588
0.0544912
0.0563298
0.0578721
0.0591182
0.060089
0.0608039
0.0612732
0.0615015
0.0615223
0.0613124
0.0608633
0.0601661
0.0592091
0.0579771
0.056449
0.054591
0.0564582
0.0583371
0.0598478
0.0610451
0.0619744
0.0626618
0.0631163
0.06334
0.0633709
0.0631824
0.0627656
0.0621111
0.0612049
0.0600277
0.0585495
0.0567172
0.0575432
0.0594609
0.0610221
0.0622775
0.0632593
0.0639904
0.0644797
0.0647245
0.0647703
0.0645881
0.0641692
0.0635045
0.0625823
0.0613869
0.0598952
0.0580551
0.0582958
0.0602835
0.0618641
0.0631201
0.0641018
0.0648357
0.0653334
0.0655892
0.0656528
0.0654943
0.0651026
0.0644677
0.063576
0.0624077
0.0609287
0.059083
0.0588504
0.0607544
0.062282
0.0634992
0.0644539
0.0651718
0.0656645
0.0659234
0.0660002
0.0658637
0.0655006
0.0649017
0.0640548
0.0629418
0.0615316
0.0597619
0.0365642
0.0372618
0.0377985
0.038191
0.0384423
0.0385488
0.0385353
0.0384747
0.0384316
0.0384049
0.0383299
0.0381404
0.0378174
0.0373582
0.0367593
0.0360028
0.0313794
0.0322975
0.0330456
0.0336315
0.0340713
0.0343786
0.0345642
0.0346374
0.0346081
0.0344751
0.0342329
0.0338754
0.0333931
0.0327739
0.0320035
0.0310718
0.0300265
0.0310188
0.031843
0.0325031
0.0330111
0.0333776
0.0336106
0.0337148
0.0337004
0.033565
0.0333053
0.0329189
0.0324001
0.0317393
0.0309251
0.029951
0.0314456
0.0326581
0.0336877
0.0345337
0.0352039
0.0357072
0.0360506
0.0362354
0.0362711
0.0361565
0.0358891
0.0354656
0.0348807
0.0341264
0.0331941
0.03208
0.0339775
0.0353677
0.0365698
0.0375764
0.0383919
0.0390216
0.0394698
0.039736
0.0398272
0.0397417
0.0394762
0.039027
0.038389
0.0375549
0.0365176
0.0352764
0.0372238
0.0387574
0.0400877
0.0412067
0.0421182
0.0428278
0.0433392
0.0436516
0.0437709
0.0436942
0.0434171
0.0429338
0.0422363
0.0413146
0.0401597
0.0387708
0.0408984
0.0425028
0.0438936
0.0450617
0.0460108
0.0467461
0.0472716
0.0475852
0.0476948
0.0475937
0.0472751
0.0467325
0.0459577
0.0449408
0.0436723
0.0421493
0.04491
0.0465381
0.0479389
0.0491061
0.0500453
0.0507628
0.0512629
0.0515442
0.0516175
0.0514725
0.0511022
0.0504988
0.0496521
0.0485512
0.0471867
0.0455576
0.0487687
0.0504036
0.0518007
0.0529567
0.053878
0.0545716
0.0550417
0.0552891
0.0553254
0.0551401
0.0547266
0.0540753
0.0531741
0.0520122
0.0505801
0.0488759
0.0521679
0.0538399
0.0552617
0.0564319
0.0573586
0.0580506
0.0585145
0.0587504
0.0587694
0.0585594
0.0581135
0.0574235
0.0564802
0.0552708
0.0537844
0.0520196
0.0548951
0.0567126
0.0582539
0.0595076
0.0604873
0.0612101
0.0616879
0.0619242
0.0619378
0.0617155
0.0612504
0.0605319
0.0595465
0.0582779
0.0567121
0.0548485
0.0568827
0.0587205
0.0602258
0.0614314
0.0623697
0.0630632
0.0635246
0.0637552
0.0637758
0.0635715
0.0631349
0.062455
0.0615166
0.0603005
0.0587863
0.0569557
0.0579787
0.0598429
0.0614054
0.062674
0.0636673
0.0644045
0.0648984
0.0651492
0.0651808
0.0649778
0.0645333
0.0638373
0.062876
0.0616339
0.0601016
0.0582685
0.0587714
0.060685
0.0622618
0.0635282
0.0645179
0.0652548
0.0657536
0.0660132
0.066059
0.0658744
0.0654522
0.0647817
0.0638482
0.0626336
0.0611174
0.0592811
0.0593493
0.0611739
0.0626907
0.0639117
0.0648697
0.0655878
0.0660803
0.0663425
0.0663984
0.066232
0.0658361
0.0652002
0.0643107
0.063151
0.0617026
0.0599459
0.0365314
0.0372288
0.0377659
0.0381594
0.0384116
0.0385184
0.0385072
0.0384475
0.0384061
0.0383814
0.0383083
0.0381217
0.0377989
0.0373385
0.0367365
0.035978
0.0313358
0.0322554
0.0330026
0.0335869
0.0340242
0.0343283
0.0345107
0.0345813
0.034548
0.0344171
0.0341739
0.0338163
0.0333341
0.0327139
0.0319409
0.0310077
0.0299806
0.0309747
0.0317978
0.0324551
0.0329592
0.0333209
0.0335484
0.0336483
0.0336272
0.0334944
0.033234
0.0328475
0.0323282
0.0316667
0.0308507
0.0298746
0.0313878
0.0326034
0.0336308
0.0344719
0.0351361
0.0356324
0.0359673
0.0361459
0.0361731
0.0360585
0.0357901
0.0353655
0.0347808
0.0340271
0.0330945