/*--------------------------------*- C++ -*----------------------------------*\
| =========                 |                                                 |
| \\      /  F ield         | OpenFOAM: The Open Source CFD Toolbox           |
|  \\    /   O peration     | Version:  1.7.x                                 |
|   \\  /    A nd           | Web:      www.OpenFOAM.com                      |
|    \\/     M anipulation  |                                                 |
\*---------------------------------------------------------------------------*/
FoamFile
{
    version     2.0;
    format      ascii;
    class       surfaceScalarField;
    location    "1.7";
    object      phi;
}
// * * * * * * * * * * * * * * * * * * * * * * * * * * * * * * * * * * * * * //

dimensions      [1 0 -1 0 0 0 0];

internalField   nonuniform List<scalar> 
175120
(
-4.49746e-06
-0.000657941
5.38044e-05
0.000608633
-4.22161e-06
-0.000614658
5.65119e-05
0.00055787
-3.21962e-06
-0.000588934
5.97894e-05
0.000528143
-3.27896e-06
-0.000576992
6.16185e-05
0.000515432
7.49128e-07
-0.00055488
6.44499e-05
0.000486402
2.20457e-06
-0.000556201
6.45339e-05
0.000490211
4.76858e-06
-0.000548004
6.58189e-05
0.000479621
8.43148e-06
-0.000544615
6.64977e-05
0.000474454
9.34739e-06
-0.000551852
6.60437e-05
0.000484892
1.34712e-05
-0.000549811
6.65426e-05
0.000479144
2.02236e-05
-0.000552584
6.61708e-05
0.00047966
2.46511e-05
-0.000582642
6.27487e-05
0.000515464
1.95024e-05
-0.000645436
5.7513e-05
0.00059307
1.1325e-05
-0.000667067
5.5835e-05
0.000619409
8.17457e-06
-0.000637504
5.72509e-05
0.000583405
9.93028e-06
-0.000611632
6.03888e-05
0.000549488
1.71342e-05
-0.000602287
6.2699e-05
0.000532385
2.45765e-05
-0.000618573
6.15859e-05
0.000549545
3.20275e-05
-0.000655318
5.60732e-05
0.000591794
-0.000796629
3.22031e-05
0.000796453
-1.23046e-05
-0.000693308
4.76718e-05
-1.22907e-05
-0.000669671
5.49983e-05
-8.84598e-06
-0.00065081
5.84312e-05
-7.25223e-06
-0.000638917
6.03319e-05
-5.02077e-07
-0.000624353
6.27221e-05
3.45539e-06
-0.000623078
6.29188e-05
9.12829e-06
-0.000617502
6.38249e-05
1.62155e-05
-0.000615855
6.41528e-05
1.9028e-05
-0.000618442
6.37766e-05
2.51045e-05
-0.00061971
6.38216e-05
3.44106e-05
-0.000624972
6.30816e-05
3.68167e-05
-0.000645179
6.01287e-05
2.66575e-05
-0.000687496
5.22173e-05
1.48849e-05
-0.000704666
4.93717e-05
1.2508e-05
-0.00068997
5.4844e-05
1.65737e-05
-0.000675163
5.94668e-05
2.51573e-05
-0.000672102
6.12312e-05
2.98471e-05
-0.00068369
6.04271e-05
3.63936e-05
-0.000716675
5.48101e-05
-0.000798503
3.82677e-05
-6.4519e-06
-0.000729142
4.22856e-05
-6.49601e-06
-0.000714627
4.50002e-05
-4.16726e-06
-0.000700878
4.7738e-05
-2.70594e-06
-0.000690144
4.97652e-05
1.96893e-06
-0.000681276
5.22482e-05
3.65459e-06
-0.000677505
5.2742e-05
7.05237e-06
-0.000674708
5.38082e-05
1.06451e-05
-0.000673841
5.43923e-05
1.22003e-05
-0.000674177
5.41794e-05
1.60321e-05
-0.00067782
5.42782e-05
2.29299e-05
-0.000685222
5.33504e-05
2.75553e-05
-0.000699665
4.98599e-05
2.24566e-05
-0.000727843
4.5445e-05
1.51302e-05
-0.000741245
4.39056e-05
1.28237e-05
-0.000733354
4.56912e-05
1.44006e-05
-0.000725061
4.83221e-05
1.80256e-05
-0.000725684
4.99577e-05
2.06147e-05
-0.000735384
4.91055e-05
2.3814e-05
-0.000764455
4.45812e-05
-0.00080703
3.23405e-05
-6.36139e-06
-0.000755127
3.23456e-05
-6.27487e-06
-0.000750445
3.57314e-05
-4.058e-06
-0.000741116
3.80217e-05
-2.17313e-06
-0.000731811
3.97813e-05
2.1279e-06
-0.000726687
4.111e-05
5.19171e-06
-0.000722411
4.18418e-05
9.8887e-06
-0.000721675
4.2269e-05
1.39454e-05
-0.000720338
4.24403e-05
1.76984e-05
-0.000720544
4.2613e-05
2.20279e-05
-0.000724378
4.22278e-05
2.64776e-05
-0.000730795
4.11225e-05
2.84857e-05
-0.000741072
3.93973e-05
2.28096e-05
-0.0007576
3.5432e-05
1.60289e-05
-0.000767901
3.34362e-05
1.46402e-05
-0.000767776
3.5811e-05
1.66128e-05
-0.000765139
3.81058e-05
1.87301e-05
-0.000766625
3.88247e-05
1.98299e-05
-0.000774341
3.78569e-05
1.88875e-05
-0.000796607
3.30936e-05
-0.000815746
2.76032e-05
-2.76716e-06
-0.000778745
2.63855e-05
-2.85332e-06
-0.000777318
2.69581e-05
-1.7159e-06
-0.000770979
2.87247e-05
7.67368e-07
-0.00076453
3.02357e-05
3.05173e-06
-0.000760555
3.15833e-05
5.74302e-06
-0.000757243
3.214e-05
7.60519e-06
-0.000756265
3.27274e-05
9.85613e-06
-0.000755707
3.31169e-05
1.29754e-05
-0.000756726
3.30621e-05
1.55853e-05
-0.000759917
3.29281e-05
1.84993e-05
-0.000765745
3.20356e-05
2.26152e-05
-0.000774758
2.95693e-05
2.08317e-05
-0.000784146
2.83284e-05
1.64418e-05
-0.000791162
2.76507e-05
1.45962e-05
-0.0007936
2.76695e-05
1.45181e-05
-0.000793851
2.87911e-05
1.4729e-05
-0.00079634
2.9504e-05
1.65405e-05
-0.000804782
2.86301e-05
1.19377e-05
-0.00081789
2.58864e-05
-0.000824261
2.04528e-05
-1.85818e-06
-0.00079123
1.43427e-05
-1.97671e-06
-0.00079282
1.56199e-05
-1.04881e-06
-0.000788684
1.67767e-05
1.18971e-06
-0.000784376
1.76076e-05
3.34703e-06
-0.00078099
1.82773e-05
6.79778e-06
-0.000779342
1.86481e-05
9.81549e-06
-0.000778202
1.89195e-05
1.30834e-05
-0.000778103
1.91276e-05
1.67185e-05
-0.000779579
1.92176e-05
1.94379e-05
-0.000781793
1.91565e-05
2.09679e-05
-0.000785881
1.86052e-05
2.15593e-05
-0.000792951
1.76012e-05
1.95597e-05
-0.000797786
1.5639e-05
1.69713e-05
-0.000803275
1.4701e-05
1.59328e-05
-0.000807911
1.53499e-05
1.56987e-05
-0.000809751
1.61341e-05
1.52622e-05
-0.000812297
1.63934e-05
1.33567e-05
-0.00081844
1.55633e-05
8.5654e-06
-0.000826519
1.34199e-05
-0.000828102
1.24061e-05
-1.20127e-07
-0.000798869
7.75738e-06
-5.1809e-08
-0.000800777
7.88849e-06
7.79034e-07
-0.000798215
8.69901e-06
2.38468e-06
-0.000795716
9.73328e-06
4.42403e-06
-0.000793424
1.03943e-05
6.48155e-06
-0.000792272
1.08712e-05
8.61407e-06
-0.000791502
1.11661e-05
1.08457e-05
-0.000791654
1.13191e-05
1.28986e-05
-0.000792889
1.12559e-05
1.50693e-05
-0.000794821
1.0856e-05
1.71673e-05
-0.000798167
1.01881e-05
1.80924e-05
-0.00080301
9.13382e-06
1.80461e-05
-0.000806427
8.68585e-06
1.67521e-05
-0.000809987
8.00601e-06
1.49615e-05
-0.000813686
7.56484e-06
1.36093e-05
-0.000816094
7.69549e-06
1.25899e-05
-0.000818954
7.67608e-06
1.07452e-05
-0.000823668
7.07274e-06
5.93744e-06
-0.000827653
5.94257e-06
-0.00082631
4.14582e-06
3.14151e-07
-0.00079645
-2.7346e-06
6.02837e-07
-0.000798574
-2.49274e-06
1.52749e-06
-0.000796872
-2.27014e-06
2.86668e-06
-0.000795231
-1.82319e-06
4.84029e-06
-0.000793712
-1.68702e-06
6.93713e-06
-0.000792871
-1.49797e-06
9.25232e-06
-0.000792486
-1.3318e-06
1.1581e-05
-0.00079276
-1.22301e-06
1.36976e-05
-0.000793779
-1.22707e-06
1.55575e-05
-0.000795417
-1.2638e-06
1.67873e-05
-0.00079777
-1.62752e-06
1.65803e-05
-0.000800774
-2.02822e-06
1.63963e-05
-0.000803335
-2.91208e-06
1.55449e-05
-0.000806397
-2.73657e-06
1.43853e-05
-0.000809244
-3.28327e-06
1.30056e-05
-0.000811726
-2.9862e-06
1.137e-05
-0.000814034
-3.28623e-06
8.31452e-06
-0.00081713
-3.48094e-06
4.56315e-06
-0.000819689
-4.21223e-06
-0.00081736
-4.38558e-06
7.34999e-07
-0.0007896
-7.58732e-06
1.27284e-06
-0.00079157
-7.54231e-06
2.21666e-06
-0.000790535
-7.2825e-06
3.49747e-06
-0.000789489
-7.02408e-06
5.14466e-06
-0.000788569
-6.79032e-06
6.91403e-06
-0.000788012
-6.62936e-06
8.76528e-06
-0.00078782
-6.51749e-06
1.05709e-05
-0.000788094
-6.47193e-06
1.22145e-05
-0.000788882
-6.54114e-06
1.36506e-05
-0.00079017
-6.68419e-06
1.47561e-05
-0.000791941
-6.9348e-06
1.51786e-05
-0.000794028
-7.16823e-06
1.51396e-05
-0.000795985
-7.31131e-06
1.44166e-05
-0.000798069
-7.60519e-06
1.3145e-05
-0.000800264
-7.70901e-06
1.15159e-05
-0.000802296
-7.80136e-06
9.50924e-06
-0.000804213
-7.81495e-06
6.89914e-06
-0.000806481
-8.03921e-06
3.44048e-06
-0.000808064
-8.16655e-06
-0.000805948
-7.9711e-06
8.90393e-07
-0.00077736
-1.31311e-05
1.57017e-06
-0.000779133
-1.31189e-05
2.51501e-06
-0.000778579
-1.29017e-05
3.74911e-06
-0.00077803
-1.26933e-05
5.22904e-06
-0.000777549
-1.25006e-05
6.83728e-06
-0.000777254
-1.2366e-05
8.49551e-06
-0.000777207
-1.22724e-05
1.0109e-05
-0.000777455
-1.22538e-05
1.15664e-05
-0.000778019
-1.23213e-05
1.27581e-05
-0.000778898
-1.2464e-05
1.35734e-05
-0.000780086
-1.26706e-05
1.38417e-05
-0.000781505
-1.27928e-05
1.36367e-05
-0.000783035
-1.27454e-05
1.29627e-05
-0.000784606
-1.27897e-05
1.18942e-05
-0.000786159
-1.30368e-05
1.04297e-05
-0.000787605
-1.32262e-05
8.39385e-06
-0.000788911
-1.3266e-05
5.65613e-06
-0.000790222
-1.35214e-05
2.57567e-06
-0.000791317
-1.36657e-05
-0.000789642
-1.37298e-05
1.00125e-06
-0.000760828
-1.75346e-05
1.73337e-06
-0.000762322
-1.75437e-05
2.65936e-06
-0.000762027
-1.74796e-05
3.81018e-06
-0.00076176
-1.74218e-05
5.10276e-06
-0.000761531
-1.73117e-05
6.4502e-06
-0.000761395
-1.72072e-05
7.81726e-06
-0.00076142
-1.71538e-05
9.1444e-06
-0.00076163
-1.71524e-05
1.03196e-05
-0.000762043
-1.71515e-05
1.12528e-05
-0.000762657
-1.71745e-05
1.18903e-05
-0.000763468
-1.72554e-05
1.21224e-05
-0.000764475
-1.72619e-05
1.19199e-05
-0.000765585
-1.72477e-05
1.13632e-05
-0.000766679
-1.73703e-05
1.04115e-05
-0.000767794
-1.74132e-05
9.0991e-06
-0.000768806
-1.74877e-05
7.2313e-06
-0.000769543
-1.75004e-05
4.90619e-06
-0.000770186
-1.77108e-05
2.26835e-06
-0.000770762
-1.7917e-05
-0.000769394
-1.79795e-05
1.02413e-06
-0.000737293
-2.45598e-05
1.74234e-06
-0.000738489
-2.45525e-05
2.56836e-06
-0.000738343
-2.45106e-05
3.55671e-06
-0.000738266
-2.44831e-05
4.63278e-06
-0.000738306
-2.43015e-05
5.6946e-06
-0.000738462
-2.39953e-05
6.77059e-06
-0.000738658
-2.38392e-05
7.79734e-06
-0.000738916
-2.37417e-05
8.69111e-06
-0.000739267
-2.36699e-05
9.36506e-06
-0.000739712
-2.36197e-05
9.77979e-06
-0.000740199
-2.36846e-05
9.92696e-06
-0.000740692
-2.39306e-05
9.74735e-06
-0.000741211
-2.41947e-05
9.25131e-06
-0.000741728
-2.44562e-05
8.49899e-06
-0.00074232
-2.47229e-05
7.41704e-06
-0.000742877
-2.4847e-05
5.83712e-06
-0.000743101
-2.48615e-05
3.96308e-06
-0.000743421
-2.4891e-05
1.83497e-06
-0.000743706
-2.49275e-05
-0.000742581
-2.49775e-05
9.38681e-07
-0.00070791
-3.0323e-05
1.56199e-06
-0.000708747
-3.03661e-05
2.21338e-06
-0.000708669
-3.0326e-05
2.91109e-06
-0.000708639
-3.03257e-05
3.67951e-06
-0.000708639
-3.04362e-05
4.52408e-06
-0.000708677
-3.06302e-05
5.35492e-06
-0.000708778
-3.07113e-05
6.12728e-06
-0.000708922
-3.07661e-05
6.79032e-06
-0.000709099
-3.08313e-05
7.30015e-06
-0.000709314
-3.09082e-05
7.63472e-06
-0.000709556
-3.09784e-05
7.7533e-06
-0.000709823
-3.09885e-05
7.63228e-06
-0.000710093
-3.09974e-05
7.19689e-06
-0.000710355
-3.09379e-05
6.57551e-06
-0.000710704
-3.09946e-05
5.70774e-06
-0.000711054
-3.09555e-05
4.52884e-06
-0.000711334
-3.0589e-05
3.05896e-06
-0.0007112
-3.07506e-05
1.3296e-06
-0.000711322
-3.06551e-05
-0.000710387
-3.08644e-05
7.78538e-07
-0.000673128
-3.55613e-05
1.2117e-06
-0.000673619
-3.55617e-05
1.65592e-06
-0.000673578
-3.5536e-05
2.1365e-06
-0.000673577
-3.55428e-05
2.65237e-06
-0.000673595
-3.55607e-05
3.21132e-06
-0.000673618
-3.56192e-05
3.7768e-06
-0.000673651
-3.56935e-05
4.32566e-06
-0.000673691
-3.57808e-05
4.78471e-06
-0.000673755
-3.58038e-05
5.11932e-06
-0.000673827
-3.58221e-05
5.31509e-06
-0.000673878
-3.58739e-05
5.39607e-06
-0.000673908
-3.59965e-05
5.31653e-06
-0.000673977
-3.60376e-05
4.96204e-06
-0.000674146
-3.58549e-05
4.41527e-06
-0.000674391
-3.5767e-05
3.10733e-06
-0.00067431
-3.54363e-05
1.62864e-06
-0.000674092
-3.57626e-05
9.21682e-07
-0.000674419
-3.60743e-05
4.14786e-07
-0.000674655
-3.61608e-05
-0.00067425
-3.57225e-05
5.49972e-07
-3.92612e-05
6.93833e-07
-3.93463e-05
9.05078e-07
-3.93728e-05
1.14702e-06
-3.94027e-05
1.41764e-06
-3.9449e-05
1.71778e-06
-3.95015e-05
2.01792e-06
-3.95342e-05
2.29632e-06
-3.9553e-05
2.54416e-06
-3.95865e-05
2.75558e-06
-3.9622e-05
2.9063e-06
-3.96122e-05
2.91329e-06
-3.94983e-05
2.77412e-06
-3.94209e-05
2.44958e-06
-3.94045e-05
1.73655e-06
-3.92607e-05
1.30104e-06
-3.94578e-05
1.3052e-06
-3.96797e-05
9.50044e-07
-3.96473e-05
2.83511e-07
-3.95711e-05
-3.95497e-05
-7.36748e-06
-0.000808455
4.62057e-05
0.00082342
-8.36792e-06
-0.000790996
5.05297e-05
0.000797979
-7.11909e-06
-0.000766213
5.42559e-05
0.000770498
-5.08372e-06
-0.000750408
5.68378e-05
0.000753153
-8.13423e-07
-0.000736032
5.91955e-05
0.000737016
2.86445e-06
-0.000730296
6.02778e-05
0.000730874
7.42055e-06
-0.000723782
6.14318e-05
0.000723613
1.2448e-05
-0.000721239
6.20017e-05
0.000720707
1.67954e-05
-0.000723545
6.18736e-05
0.000723367
2.22081e-05
-0.000727871
6.14325e-05
0.000727568
2.80386e-05
-0.000739053
5.97085e-05
0.000739684
3.08433e-05
-0.000764387
5.56176e-05
0.000768713
2.67622e-05
-0.000794018
5.03545e-05
0.000805256
2.16714e-05
-0.000804588
4.81037e-05
0.000817411
2.02447e-05
-0.000799597
4.98966e-05
0.000808379
2.37694e-05
-0.000789668
5.21435e-05
0.000794389
3.15195e-05
-0.000792999
5.23465e-05
0.000795602
3.85052e-05
-0.000821453
4.86208e-05
0.000827433
4.69458e-05
-0.000871755
3.86329e-05
0.000880755
-0.00102665
3.45705e-06
0.00110234
-1.0337e-05
-0.000793951
4.35037e-05
-1.01526e-05
-0.000785064
4.88827e-05
-8.4168e-06
-0.000761505
5.19871e-05
-6.15295e-06
-0.000746683
5.43437e-05
-9.41998e-07
-0.000735021
5.64992e-05
3.0835e-06
-0.000728959
5.75556e-05
8.41734e-06
-0.000723903
5.86115e-05
1.35775e-05
-0.000721506
5.92595e-05
1.82279e-05
-0.000723768
5.93492e-05
2.48413e-05
-0.000729845
5.91813e-05
3.33175e-05
-0.000742126
5.76775e-05
3.57363e-05
-0.000760855
5.41763e-05
2.82178e-05
-0.000782945
4.86619e-05
2.08373e-05
-0.000794454
4.66191e-05
1.88624e-05
-0.000791429
4.86524e-05
2.29852e-05
-0.000785186
5.0862e-05
2.98012e-05
-0.000789786
5.12032e-05
3.68216e-05
-0.000815947
4.78998e-05
4.88128e-05
-0.000865565
3.66288e-05
-0.000952306
1.27342e-05
-4.4538e-06
-0.000796224
4.90113e-05
-5.2572e-06
-0.000791718
5.24577e-05
-5.26395e-06
-0.000769245
5.54849e-05
-3.62182e-06
-0.000756658
5.80975e-05
4.72441e-07
-0.000747065
6.01982e-05
3.9014e-06
-0.000741216
6.15704e-05
8.31168e-06
-0.000737123
6.26178e-05
1.27233e-05
-0.00073479
6.32638e-05
1.6787e-05
-0.000737103
6.34496e-05
2.19153e-05
-0.00074362
6.29245e-05
2.72295e-05
-0.000755147
6.10564e-05
2.94426e-05
-0.000770657
5.74477e-05
2.59316e-05
-0.000787652
5.36615e-05
2.25086e-05
-0.000798723
5.15973e-05
2.11429e-05
-0.000796854
5.24823e-05
2.30939e-05
-0.000792664
5.38489e-05
2.70551e-05
-0.000797243
5.34539e-05
2.84734e-05
-0.000818338
5.00789e-05
3.10005e-05
-0.00086409
4.05793e-05
-0.000906883
1.79181e-05
-8.49153e-06
-0.000791646
3.62586e-05
-9.80876e-06
-0.000794
3.93312e-05
-7.73205e-06
-0.00077754
4.42395e-05
-4.73411e-06
-0.000766956
4.70809e-05
1.51948e-07
-0.000760118
4.92765e-05
4.4515e-06
-0.000754392
5.07174e-05
9.53098e-06
-0.000751661
5.17264e-05
1.48498e-05
-0.00074998
5.23115e-05
2.00422e-05
-0.000752035
5.23519e-05
2.676e-05
-0.000759869
5.17586e-05
3.2792e-05
-0.000770247
5.01904e-05
3.46642e-05
-0.000780353
4.72196e-05
2.88775e-05
-0.000790229
4.37943e-05
2.15432e-05
-0.000799521
4.15686e-05
1.99381e-05
-0.000801034
4.15962e-05
2.30391e-05
-0.000799903
4.22442e-05
2.73415e-05
-0.000804451
4.17314e-05
3.22515e-05
-0.000823618
3.82265e-05
3.03106e-05
-0.000856172
2.71167e-05
-0.000872113
2.31431e-05
-3.15052e-07
-0.000799644
3.46983e-05
-2.90889e-06
-0.000800088
3.56398e-05
-2.99958e-06
-0.00078698
3.82553e-05
-9.0496e-07
-0.000779294
4.04784e-05
2.1452e-06
-0.000773768
4.21824e-05
5.50964e-06
-0.00076917
4.35537e-05
9.18486e-06
-0.000767013
4.44044e-05
1.33273e-05
-0.000765889
4.48829e-05
1.75021e-05
-0.000767936
4.47878e-05
2.06173e-05
-0.00077389
4.38326e-05
2.27604e-05
-0.000782353
4.19967e-05
2.38803e-05
-0.000791186
3.92808e-05
2.51134e-05
-0.000800647
3.75125e-05
2.3502e-05
-0.000806175
3.59166e-05
2.19019e-05
-0.0008074
3.56361e-05
2.20771e-05
-0.000807492
3.62056e-05
2.38187e-05
-0.000812246
3.55576e-05
2.19293e-05
-0.000825996
3.28979e-05
1.32307e-05
-0.000849927
2.83392e-05
-0.000856635
1.82051e-05
-5.78892e-06
-0.000801375
2.18619e-05
-8.18732e-06
-0.000804741
2.26709e-05
-5.82122e-06
-0.000796866
2.42962e-05
-2.35372e-06
-0.000790773
2.56195e-05
1.58749e-06
-0.000786239
2.68073e-05
5.983e-06
-0.00078257
2.76522e-05
1.05348e-05
-0.000780851
2.82048e-05
1.59215e-05
-0.000780591
2.84424e-05
2.14176e-05
-0.000782446
2.82305e-05
2.62161e-05
-0.000787145
2.76126e-05
2.95138e-05
-0.000793577
2.65305e-05
3.02634e-05
-0.000799595
2.52596e-05
2.67364e-05
-0.000804894
2.34129e-05
2.08446e-05
-0.000808038
2.24551e-05
1.92814e-05
-0.000812867
2.23807e-05
2.13647e-05
-0.000815856
2.24149e-05
2.45418e-05
-0.000820812
2.17829e-05
2.43163e-05
-0.000830032
1.98251e-05
1.68551e-05
-0.000844181
1.51353e-05
-0.000843492
1.6117e-05
1.59744e-06
-0.00081154
1.63241e-05
6.36126e-07
-0.000812456
1.65637e-05
9.22842e-07
-0.000806295
1.78417e-05
2.23059e-06
-0.000801563
1.92147e-05
4.13563e-06
-0.000797913
2.01621e-05
6.79804e-06
-0.000795324
2.09619e-05
9.55166e-06
-0.000793867
2.14274e-05
1.25484e-05
-0.000793849
2.15794e-05
1.54187e-05
-0.000795436
2.13746e-05
1.74606e-05
-0.000798952
2.06201e-05
1.86944e-05
-0.000804127
1.95041e-05
1.95635e-05
-0.000809628
1.82962e-05
2.04296e-05
-0.000814449
1.73746e-05
2.14887e-05
-0.000817715
1.66225e-05
2.03519e-05
-0.000820391
1.62261e-05
1.8697e-05
-0.000822701
1.61952e-05
1.70077e-05
-0.000827097
1.56509e-05
1.36498e-05
-0.00083395
1.43482e-05
5.56829e-06
-0.000843201
1.30434e-05
-0.000841799
8.02074e-06
-2.04378e-06
-0.000814158
1.9266e-06
-3.15073e-06
-0.000815754
1.91174e-06
-1.90867e-06
-0.000812537
2.73029e-06
6.78678e-07
-0.000809454
3.47891e-06
3.69714e-06
-0.000806798
4.17918e-06
7.18722e-06
-0.000804998
4.68583e-06
1.09682e-05
-0.000804028
5.04825e-06
1.48346e-05
-0.000804102
5.16335e-06
1.854e-05
-0.000805359
4.99017e-06
2.1312e-05
-0.000807643
4.65434e-06
2.26085e-05
-0.000811134
4.08127e-06
2.25428e-05
-0.000814899
3.307e-06
2.09861e-05
-0.00081865
2.84817e-06
1.9386e-05
-0.000821431
2.57712e-06
1.83455e-05
-0.000824551
1.91703e-06
1.83993e-05
-0.000827286
1.54428e-06
1.77773e-05
-0.00083065
8.89785e-07
1.5253e-05
-0.000834775
-1.31881e-07
9.40157e-06
-0.000838521
-3.04131e-06
-0.000837846
1.06277e-06
3.50224e-07
-0.000809572
-1.25253e-05
6.26133e-07
-0.000811574
-1.19993e-05
1.6779e-06
-0.000810202
-1.067e-05
3.3253e-06
-0.000808734
-9.39162e-06
5.44077e-06
-0.000807528
-8.1768e-06
7.75381e-06
-0.000806723
-7.21819e-06
1.03091e-05
-0.000806252
-6.84954e-06
1.28232e-05
-0.000806366
-6.7226e-06
1.50514e-05
-0.000807261
-6.86848e-06
1.6648e-05
-0.000808613
-7.31136e-06
1.73868e-05
-0.000810477
-8.33211e-06
1.74979e-05
-0.000812958
-9.22071e-06
1.80903e-05
-0.000815879
-1.06762e-05
1.86083e-05
-0.000818023
-1.15305e-05
1.74175e-05
-0.000819493
-1.15772e-05
1.55219e-05
-0.000821569
-1.16216e-05
1.30661e-05
-0.000823807
-1.2203e-05
9.61582e-06
-0.000825758
-1.36042e-05
3.78921e-06
-0.000827698
-1.31626e-05
-0.000822687
-1.934e-05
5.88096e-07
-0.000786721
-3.65737e-05
1.15748e-06
-0.000788788
-3.6475e-05
2.27997e-06
-0.000788058
-3.61705e-05
3.76788e-06
-0.000787358
-3.55576e-05
5.75936e-06
-0.00078685
-3.51709e-05
7.94769e-06
-0.000786592
-3.46859e-05
1.03316e-05
-0.000786442
-3.44676e-05
1.25729e-05
-0.000786579
-3.42819e-05
1.45367e-05
-0.000787115
-3.4433e-05
1.59621e-05
-0.000787937
-3.45653e-05
1.68319e-05
-0.000789029
-3.49901e-05
1.68216e-05
-0.000790359
-3.53806e-05
1.60034e-05
-0.000792107
-3.5702e-05
1.47053e-05
-0.00079398
-3.55335e-05
1.38182e-05
-0.000795412
-3.62327e-05
1.27131e-05
-0.000797241
-3.64484e-05
1.1129e-05
-0.00079828
-3.72117e-05
9.12716e-06
-0.000799924
-3.73516e-05
5.52931e-06
-0.000800222
-3.75437e-05
-0.000797139
-3.37452e-05
1.17956e-06
-0.000761255
-4.4182e-05
2.03739e-06
-0.000763064
-4.41267e-05
3.07926e-06
-0.000762753
-4.38277e-05
4.27631e-06
-0.00076241
-4.35672e-05
5.63314e-06
-0.000762208
-4.33117e-05
7.06353e-06
-0.000762133
-4.30973e-05
8.49874e-06
-0.000762052
-4.29803e-05
9.89951e-06
-0.000762169
-4.29642e-05
1.11475e-05
-0.000762471
-4.30442e-05
1.21597e-05
-0.000762925
-4.31997e-05
1.28725e-05
-0.000763571
-4.3427e-05
1.31771e-05
-0.000764445
-4.34806e-05
1.33129e-05
-0.000765738
-4.3753e-05
1.2878e-05
-0.0007669
-4.40157e-05
1.18803e-05
-0.000767912
-4.39167e-05
9.97416e-06
-0.000768891
-4.39313e-05
7.66548e-06
-0.000769419
-4.40526e-05
4.60699e-06
-0.000769952
-4.46246e-05
8.22478e-07
-0.000770516
-4.38381e-05
-0.000769618
-4.46781e-05
1.05377e-06
-0.000736965
-4.99051e-05
1.86254e-06
-0.000738504
-4.99226e-05
2.80269e-06
-0.000738385
-4.98188e-05
3.98793e-06
-0.000738317
-4.97622e-05
5.35587e-06
-0.000738063
-4.98146e-05
6.68833e-06
-0.000737502
-4.99591e-05
8.03978e-06
-0.00073722
-5.00231e-05
9.18373e-06
-0.000737028
-5.00272e-05
1.02289e-05
-0.000737114
-5.00725e-05
1.09216e-05
-0.000737112
-5.01261e-05
1.13135e-05
-0.000737172
-5.0476e-05
1.11442e-05
-0.000737167
-5.10399e-05
1.0227e-05
-0.000737606
-5.14098e-05
9.7579e-06
-0.000739443
-5.14443e-05
9.16966e-06
-0.000740417
-5.16298e-05
8.23044e-06
-0.000741238
-5.15608e-05
7.18836e-06
-0.00074191
-5.13293e-05
5.73977e-06
-0.000742146
-5.12483e-05
3.42114e-06
-0.000742942
-5.01824e-05
-0.000741615
-4.95583e-05
1.15229e-06
-0.000715057
-5.33838e-05
1.90534e-06
-0.000716194
-5.34299e-05
2.65062e-06
-0.000716105
-5.33521e-05
3.37627e-06
-0.000716021
-5.33487e-05
4.05373e-06
-0.000715708
-5.34699e-05
4.75778e-06
-0.000715074
-5.37631e-05
5.50917e-06
-0.000714717
-5.39664e-05
6.05473e-06
-0.000714258
-5.40825e-05
6.71695e-06
-0.000714469
-5.41393e-05
7.40278e-06
-0.000714549
-5.41578e-05
7.90021e-06
-0.000714228
-5.44203e-05
8.29198e-06
-0.000713991
-5.45567e-05
8.75142e-06
-0.000714658
-5.44056e-05
8.43309e-06
-0.000715752
-5.43109e-05
7.52267e-06
-0.000716267
-5.42344e-05
6.25552e-06
-0.000716974
-5.39531e-05
4.81375e-06
-0.000717543
-5.35137e-05
3.17571e-06
-0.000717779
-5.34794e-05
1.27882e-06
-0.000718418
-5.32823e-05
-0.00071818
-5.30204e-05
8.10935e-07
-0.000693258
-5.81722e-05
1.02871e-06
-0.000693738
-5.82367e-05
1.36045e-06
-0.000693785
-5.81887e-05
1.73053e-06
-0.000693829
-5.81056e-05
2.2697e-06
-0.000693814
-5.79943e-05
3.03801e-06
-0.000693677
-5.77851e-05
3.73894e-06
-0.000693509
-5.76031e-05
4.46775e-06
-0.000693302
-5.74659e-05
4.88896e-06
-0.000693297
-5.73973e-05
5.09204e-06
-0.000693228
-5.73468e-05
5.17426e-06
-0.000693028
-5.71569e-05
5.27301e-06
-0.000692913
-5.71744e-05
5.10933e-06
-0.000693003
-5.75293e-05
4.65631e-06
-0.000693463
-5.76921e-05
4.22467e-06
-0.000693786
-5.78167e-05
3.84773e-06
-0.000693947
-5.80865e-05
3.22392e-06
-0.000694063
-5.86192e-05
2.36348e-06
-0.000694186
-5.88063e-05
1.15231e-06
-0.000694239
-5.9129e-05
-0.000693776
-5.89748e-05
4.15257e-07
-6.67977e-05
5.74011e-07
-6.71055e-05
7.97093e-07
-6.7244e-05
9.55247e-07
-6.72525e-05
1.00448e-06
-6.71753e-05
1.01569e-06
-6.70526e-05
1.06491e-06
-6.69552e-05
1.20932e-06
-6.68625e-05
1.34518e-06
-6.68821e-05
1.515e-06
-6.68822e-05
1.68572e-06
-6.66732e-05
1.85951e-06
-6.64475e-05
1.96554e-06
-6.63926e-05
1.76859e-06
-6.65326e-05
1.54328e-06
-6.6684e-05
1.21514e-06
-6.69389e-05
6.90608e-07
-6.70808e-05
2.2972e-07
-6.72352e-05
-1.5085e-07
-6.72924e-05
-6.73388e-05
-5.68056e-06
-0.000743136
1.59448e-05
0.000779075
-6.28987e-06
-0.000728584
1.90802e-05
0.000760644
-4.59383e-06
-0.00071614
2.19092e-05
0.000746791
-2.0321e-06
-0.000706808
2.41396e-05
0.000736945
1.8237e-06
-0.000697557
2.62244e-05
0.000726672
5.83322e-06
-0.000693581
2.73804e-05
0.000722469
1.04984e-05
-0.000689429
2.83915e-05
0.000717804
1.5657e-05
-0.000688026
2.88857e-05
0.000715983
2.08711e-05
-0.000690107
2.8655e-05
0.000718111
2.66002e-05
-0.000693113
2.80051e-05
0.000720811
3.21207e-05
-0.00070111
2.63562e-05
0.000728941
3.55346e-05
-0.000719112
2.28393e-05
0.000748476
3.41649e-05
-0.00074622
1.82098e-05
0.000779733
2.91451e-05
-0.000764131
1.49765e-05
0.00080228
2.93597e-05
-0.000755683
1.6607e-05
0.000788759
3.3997e-05
-0.000751603
1.79203e-05
0.000781187
4.20477e-05
-0.000759403
1.65627e-05
0.000787139
4.80819e-05
-0.000787133
1.07678e-05
0.000818952
4.93033e-05
-0.000847752
5.38095e-07
0.000884626
-0.00102768
-3.60143e-05
0.00111646
-5.17587e-06
-0.000704577
1.01154e-05
-5.20244e-06
-0.000692532
1.28613e-05
-3.69652e-06
-0.000680601
1.49417e-05
-1.41405e-06
-0.000671701
1.69543e-05
2.60184e-06
-0.000663805
1.87313e-05
6.26339e-06
-0.000659516
1.98285e-05
1.10216e-05
-0.000656288
2.07117e-05
1.6098e-05
-0.000655035
2.11921e-05
2.07695e-05
-0.000656506
2.10765e-05
2.63135e-05
-0.000659986
2.05097e-05
3.23284e-05
-0.000668519
1.90715e-05
3.60776e-05
-0.000684987
1.63007e-05
3.43344e-05
-0.000708352
1.25342e-05
2.82965e-05
-0.000722045
1.05742e-05
2.88594e-05
-0.00071887
1.12786e-05
3.23518e-05
-0.000716309
1.20728e-05
3.76206e-05
-0.000724946
1.14816e-05
4.32388e-05
-0.000751332
6.47922e-06
5.47351e-05
-0.00081703
-5.58757e-06
-0.000934165
-2.60439e-05
-4.83394e-06
-0.000670161
1.94209e-05
-5.11636e-06
-0.000663582
2.37966e-05
-3.45333e-06
-0.000652827
2.60471e-05
-1.00803e-06
-0.000644611
2.85613e-05
3.05762e-06
-0.000638065
3.03919e-05
6.91015e-06
-0.000633456
3.16576e-05
1.16862e-05
-0.000630983
3.25368e-05
1.67521e-05
-0.000629894
3.30574e-05
2.17731e-05
-0.000631132
3.30542e-05
2.78575e-05
-0.000635477
3.23316e-05
3.41709e-05
-0.000644408
3.06314e-05
3.78106e-05
-0.000658878
2.76981e-05
3.5369e-05
-0.000675692
2.34366e-05
3.03663e-05
-0.000687367
2.19296e-05
3.02456e-05
-0.000689317
2.30522e-05
3.34392e-05
-0.000689416
2.37547e-05
3.81068e-05
-0.000699625
2.34727e-05
4.13351e-05
-0.000721373
1.68894e-05
4.02054e-05
-0.00078083
5.51038e-06
-0.000858346
-1.76936e-05
-3.7081e-06
-0.000648373
1.81721e-05
-4.42615e-06
-0.000644464
2.09365e-05
-2.67873e-06
-0.000633668
2.3333e-05
-1.41607e-08
-0.00062595
2.57558e-05
3.60686e-06
-0.000620052
2.76432e-05
7.68398e-06
-0.000615825
2.90092e-05
1.22806e-05
-0.000613714
2.98595e-05
1.71449e-05
-0.000612861
3.04141e-05
2.23599e-05
-0.000614327
3.033e-05
2.8137e-05
-0.000619101
2.96051e-05
3.33294e-05
-0.000627218
2.78074e-05
3.55486e-05
-0.000638869
2.49897e-05
3.37073e-05
-0.00065142
2.13589e-05
3.05009e-05
-0.000662643
2.00564e-05
2.98525e-05
-0.000666679
1.96076e-05
3.17639e-05
-0.000668708
1.96198e-05
3.39591e-05
-0.000679
1.89164e-05
4.12931e-05
-0.000702676
1.21937e-05
3.94457e-05
-0.000749587
-2.27901e-06
-0.000788067
-7.68883e-06
-2.83337e-06
-0.000639477
2.86336e-05
-3.43057e-06
-0.000638643
3.04182e-05
-1.88121e-06
-0.000630377
3.34146e-05
7.23958e-07
-0.000623801
3.57237e-05
4.2702e-06
-0.000618995
3.75786e-05
8.40537e-06
-0.000615377
3.89699e-05
1.29402e-05
-0.000613622
3.97768e-05
1.76894e-05
-0.000613139
4.04132e-05
2.2942e-05
-0.000614904
4.01104e-05
2.81407e-05
-0.000619792
3.93249e-05
3.28068e-05
-0.000627338
3.745e-05
3.50194e-05
-0.000636609
3.48077e-05
3.44049e-05
-0.000645102
3.18059e-05
3.19399e-05
-0.000653856
2.95972e-05
3.08928e-05
-0.000659485
2.949e-05
3.1891e-05
-0.000663509
3.00074e-05
3.37867e-05
-0.000673929
2.85941e-05
3.46069e-05
-0.000693592
2.29917e-05
2.16543e-05
-0.00072109
1.27945e-05
-0.000742655
-5.55433e-06
-2.16624e-06
-0.000631518
1.60691e-05
-2.61183e-06
-0.000632503
1.69765e-05
-1.11802e-06
-0.000627213
1.96389e-05
1.53394e-06
-0.000622636
2.18027e-05
4.97254e-06
-0.0006192
2.35735e-05
9.01972e-06
-0.000616648
2.48763e-05
1.33931e-05
-0.000615433
2.56414e-05
1.81225e-05
-0.000615555
2.61295e-05
2.335e-05
-0.000617657
2.57551e-05
2.80169e-05
-0.000621732
2.48852e-05
3.15007e-05
-0.000627413
2.31208e-05
3.24668e-05
-0.000633104
2.07877e-05
3.18135e-05
-0.000639761
1.87249e-05
3.02275e-05
-0.000646844
1.7028e-05
2.91284e-05
-0.000652364
1.63595e-05
2.87916e-05
-0.000656931
1.61737e-05
2.80733e-05
-0.000665246
1.38186e-05
2.89212e-05
-0.000682166
7.55066e-06
2.50078e-05
-0.000701827
-2.14331e-07
-0.000704054
2.52173e-06
-6.30972e-07
-0.000639539
2.49776e-05
-8.14568e-07
-0.000641692
2.5936e-05
3.81867e-07
-0.00063867
2.8103e-05
2.63842e-06
-0.000635616
2.99369e-05
5.73152e-06
-0.00063351
3.1379e-05
9.44688e-06
-0.000631857
3.24539e-05
1.34753e-05
-0.000631175
3.314e-05
1.78582e-05
-0.00063166
3.33003e-05
2.21451e-05
-0.000633645
3.30746e-05
2.59075e-05
-0.000637002
3.21266e-05
2.87315e-05
-0.000641387
3.06545e-05
3.05061e-05
-0.000645558
2.89737e-05
3.1027e-05
-0.000650006
2.70983e-05
2.99934e-05
-0.000654824
2.56341e-05
2.85886e-05
-0.000659843
2.51092e-05
2.75884e-05
-0.000664634
2.48992e-05
2.76213e-05
-0.000672902
2.32746e-05
2.13994e-05
-0.000680837
1.92397e-05
6.29523e-06
-0.000688267
1.45865e-05
-0.000692131
2.39103e-06
-7.13615e-07
-0.000641823
4.9251e-06
-6.99721e-07
-0.000644741
4.94705e-06
6.65316e-07
-0.00064314
5.83436e-06
3.05667e-06
-0.000641319
6.79036e-06
6.07988e-06
-0.000640024
7.66894e-06
9.69754e-06
-0.000639101
8.31236e-06
1.37212e-05
-0.00063887
8.71893e-06
1.79941e-05
-0.000639555
8.78505e-06
2.20227e-05
-0.000641205
8.52155e-06
2.53954e-05
-0.00064359
7.86925e-06
2.7372e-05
-0.000646329
7.04506e-06
2.80196e-05
-0.000649019
6.12005e-06
2.75033e-05
-0.000652224
5.58279e-06
2.65222e-05
-0.000656155
4.88873e-06
2.52598e-05
-0.000660743
4.0791e-06
2.44052e-05
-0.000665388
3.15382e-06
2.10005e-05
-0.000670475
1.86581e-06
1.7772e-05
-0.000677711
-2.99241e-08
1.53583e-05
-0.000685157
-3.73861e-06
-0.000679837
4.12705e-06
8.89431e-07
-0.000661536
6.29573e-06
1.22521e-06
-0.000663612
6.53678e-06
2.38511e-06
-0.000662385
7.41323e-06
4.16176e-06
-0.000660669
8.18267e-06
6.607e-06
-0.000659601
8.95354e-06
9.55393e-06
-0.000658736
9.47042e-06
1.27805e-05
-0.000658775
9.82688e-06
1.59339e-05
-0.000659285
9.85347e-06
1.87913e-05
-0.000660611
9.67761e-06
2.11492e-05
-0.00066243
9.17129e-06
2.29312e-05
-0.000665005
8.55916e-06
2.42719e-05
-0.000667431
7.85186e-06
2.48649e-05
-0.000670492
6.99516e-06
2.41794e-05
-0.000673202
6.2038e-06
2.30194e-05
-0.000676972
5.80863e-06
2.13442e-05
-0.000680501
5.16916e-06
1.90802e-05
-0.000684953
4.53613e-06
1.10199e-05
-0.000686541
3.28932e-06
2.12429e-07
-0.000690956
3.44205e-06
-0.000694272
-4.68961e-06
8.31088e-07
-0.000683629
-1.53258e-05
7.97236e-07
-0.000686407
-1.3638e-05
2.62204e-06
-0.00068542
-1.49701e-05
4.19727e-06
-0.000684675
-1.31195e-05
6.93909e-06
-0.000683601
-1.39203e-05
9.46111e-06
-0.00068327
-1.26692e-05
1.26744e-05
-0.000683099
-1.33623e-05
1.53956e-05
-0.000683733
-1.25505e-05
1.84122e-05
-0.000684483
-1.35833e-05
2.01964e-05
-0.000685942
-1.28306e-05
2.17985e-05
-0.000687027