/*--------------------------------*- C++ -*----------------------------------*\
| =========                 |                                                 |
| \\      /  F ield         | OpenFOAM: The Open Source CFD Toolbox           |
|  \\    /   O peration     | Version:  1.7.x                                 |
|   \\  /    A nd           | Web:      www.OpenFOAM.com                      |
|    \\/     M anipulation  |                                                 |
\*---------------------------------------------------------------------------*/
FoamFile
{
    version     2.0;
    format      ascii;
    class       volVectorField;
    location    "1.7";
    object      U;
}
// * * * * * * * * * * * * * * * * * * * * * * * * * * * * * * * * * * * * * //

dimensions      [0 1 -1 0 0 0 0];

internalField   nonuniform List<vector> 
59760
(
(-15.6763 -4.60447 0.00819348)
(-15.1162 -4.60218 0.23037)
(-14.8071 -4.7468 0.148142)
(-14.6633 -4.81613 0.15862)
(-14.4122 -4.98413 0.0514428)
(-14.4005 -4.95252 -0.0814769)
(-14.2996 -5.02705 -0.130785)
(-14.252 -5.07065 -0.274983)
(-14.3119 -5.04747 -0.351945)
(-14.2931 -5.12348 -0.451687)
(-14.3545 -5.14978 -0.714407)
(-14.7393 -4.9772 -0.94919)
(-15.5744 -4.70992 -0.861888)
(-15.8559 -4.59138 -0.669467)
(-15.4938 -4.54313 -0.386768)
(-15.2053 -4.69785 -0.317811)
(-15.1464 -4.87239 -0.534872)
(-15.3692 -4.84026 -0.860225)
(-15.9036 -4.6115 -1.44844)
(-17.4596 -3.42286 -0.638264)
(-14.8692 -3.77334 0.294528)
(-14.6189 -4.22308 0.502334)
(-14.3807 -4.41898 0.413706)
(-14.2332 -4.51448 0.304418)
(-13.9942 -4.61549 0.136602)
(-13.9826 -4.61476 -0.0696523)
(-13.8927 -4.63961 -0.24051)
(-13.8713 -4.63152 -0.459786)
(-13.962 -4.61435 -0.652913)
(-14.0069 -4.59674 -0.863756)
(-14.0901 -4.55327 -1.1229)
(-14.3765 -4.42759 -1.3482)
(-14.8717 -3.97957 -1.22592)
(-15.0559 -3.8001 -0.748805)
(-14.9121 -4.15154 -0.462856)
(-14.7803 -4.42376 -0.533427)
(-14.7449 -4.48796 -0.795483)
(-14.9661 -4.44226 -1.09403)
(-15.3791 -4.21175 -1.38008)
(-16.7154 -3.36273 -0.828395)
(-15.448 -3.00067 0.101161)
(-15.2976 -3.13598 0.238063)
(-15.1206 -3.25431 0.197403)
(-14.9913 -3.33817 0.127758)
(-14.8567 -3.46343 0.00841552)
(-14.8132 -3.46929 -0.101278)
(-14.7645 -3.51921 -0.189095)
(-14.7511 -3.54694 -0.288292)
(-14.7728 -3.52638 -0.396814)
(-14.8076 -3.54151 -0.509301)
(-14.9098 -3.5157 -0.663293)
(-15.1324 -3.33994 -0.841319)
(-15.4889 -3.08937 -0.852985)
(-15.6753 -3.01325 -0.668629)
(-15.6097 -3.09517 -0.49442)
(-15.53 -3.22226 -0.478179)
(-15.5615 -3.32016 -0.570621)
(-15.7388 -3.29382 -0.722576)
(-16.1407 -3.12917 -0.835236)
(-16.7211 -2.56853 -0.357396)
(-15.3837 -2.39526 0.117422)
(-15.3308 -2.556 0.196402)
(-15.1864 -2.64486 0.177855)
(-15.0605 -2.71468 0.100953)
(-14.9318 -2.7512 0.00729091)
(-14.884 -2.77847 -0.112961)
(-14.8391 -2.78297 -0.242572)
(-14.8329 -2.77971 -0.37583)
(-14.8712 -2.79552 -0.513035)
(-14.931 -2.77512 -0.664339)
(-15.0393 -2.71527 -0.779799)
(-15.2287 -2.64392 -0.832174)
(-15.4525 -2.47604 -0.788954)
(-15.5918 -2.38228 -0.622228)
(-15.6068 -2.48979 -0.510367)
(-15.5809 -2.59435 -0.519127)
(-15.6145 -2.61501 -0.593244)
(-15.7726 -2.59234 -0.665025)
(-16.061 -2.42848 -0.580151)
(-16.5015 -2.2275 -0.308847)
(-15.7953 -2.04275 0.0302833)
(-15.7649 -2.05516 0.0854027)
(-15.6571 -2.09872 0.0684918)
(-15.5647 -2.13947 0.0182092)
(-15.4959 -2.19782 -0.0574804)
(-15.4544 -2.20274 -0.126885)
(-15.4325 -2.22793 -0.193339)
(-15.4277 -2.24416 -0.260731)
(-15.4426 -2.23299 -0.338136)
(-15.4846 -2.24322 -0.413595)
(-15.573 -2.2282 -0.502674)
(-15.7136 -2.1254 -0.586376)
(-15.8968 -2.05937 -0.617001)
(-16.01 -2.03007 -0.564967)
(-16.0335 -2.00933 -0.481995)
(-16.0382 -2.04546 -0.441765)
(-16.0982 -2.08851 -0.445022)
(-16.2339 -2.06727 -0.457278)
(-16.4759 -2.00501 -0.419264)
(-16.6394 -1.77267 -0.119432)
(-15.8829 -1.51194 0.0282745)
(-15.8824 -1.54602 0.0479505)
(-15.8037 -1.5723 0.0462467)
(-15.7279 -1.59436 0.000486736)
(-15.6682 -1.60716 -0.0560253)
(-15.6333 -1.61456 -0.13441)
(-15.6151 -1.61847 -0.222832)
(-15.6175 -1.62374 -0.314835)
(-15.6455 -1.62995 -0.40572)
(-15.6971 -1.63008 -0.493114)
(-15.7716 -1.60847 -0.554884)
(-15.8747 -1.56276 -0.568539)
(-15.9826 -1.50832 -0.540007)
(-16.0754 -1.47518 -0.500104)
(-16.1168 -1.48352 -0.462473)
(-16.1475 -1.50453 -0.441846)
(-16.2041 -1.51147 -0.430441)
(-16.3116 -1.49231 -0.393904)
(-16.4616 -1.44097 -0.258141)
(-16.5118 -1.4107 -0.131733)
(-16.1221 -1.2944 -0.00330887)
(-16.1477 -1.30464 0.00588963)
(-16.0939 -1.31644 -0.00610829)
(-16.0428 -1.32977 -0.0366046)
(-16.0044 -1.34172 -0.0845675)
(-15.9795 -1.34548 -0.136712)
(-15.9681 -1.34889 -0.189455)
(-15.971 -1.34935 -0.24568)
(-15.9904 -1.34497 -0.300149)
(-16.0278 -1.33866 -0.350946)
(-16.0869 -1.32708 -0.403059)
(-16.1651 -1.30075 -0.438975)
(-16.2473 -1.2774 -0.455132)
(-16.3151 -1.25299 -0.442252)
(-16.3649 -1.24206 -0.407305)
(-16.4048 -1.24466 -0.364827)
(-16.4624 -1.24948 -0.330074)
(-16.5481 -1.23866 -0.282807)
(-16.6553 -1.2087 -0.212765)
(-16.6677 -1.16967 -0.0491868)
(-16.2427 -0.911629 -0.00359182)
(-16.2825 -0.918074 -0.0123115)
(-16.2514 -0.932599 -0.0220645)
(-16.22 -0.943396 -0.0504496)
(-16.1932 -0.950947 -0.0878272)
(-16.1765 -0.955462 -0.136191)
(-16.1688 -0.957325 -0.188843)
(-16.1727 -0.957936 -0.243475)
(-16.1898 -0.956391 -0.296337)
(-16.2192 -0.950692 -0.344225)
(-16.2614 -0.933383 -0.379191)
(-16.3143 -0.904825 -0.390188)
(-16.3646 -0.876195 -0.383791)
(-16.4146 -0.853132 -0.372236)
(-16.4624 -0.843603 -0.352037)
(-16.5048 -0.840792 -0.324909)
(-16.5502 -0.836294 -0.286523)
(-16.6025 -0.815805 -0.230384)
(-16.6479 -0.791605 -0.132397)
(-16.6185 -0.779894 -0.0661434)
(-16.3776 -0.694718 -0.0105397)
(-16.4197 -0.692391 -0.0218742)
(-16.3984 -0.698413 -0.0364165)
(-16.3773 -0.704364 -0.0609738)
(-16.3583 -0.710613 -0.0931716)
(-16.3468 -0.713866 -0.130564)
(-16.3424 -0.715565 -0.170236)
(-16.3473 -0.714911 -0.210534)
(-16.3623 -0.711083 -0.248715)
(-16.3866 -0.704431 -0.281889)
(-16.4199 -0.693347 -0.309168)
(-16.4602 -0.676504 -0.326659)
(-16.4987 -0.663641 -0.331966)
(-16.5408 -0.64964 -0.322985)
(-16.5815 -0.637018 -0.301077)
(-16.6209 -0.629359 -0.269016)
(-16.6601 -0.627588 -0.230234)
(-16.7042 -0.620509 -0.175002)
(-16.7448 -0.625742 -0.116176)
(-16.7124 -0.645069 -0.0308249)
(-16.4951 -0.429059 -0.0105327)
(-16.5357 -0.429149 -0.0254623)
(-16.523 -0.435108 -0.0398106)
(-16.5099 -0.440385 -0.062834)
(-16.4984 -0.444399 -0.0905552)
(-16.4913 -0.447041 -0.122232)
(-16.4897 -0.448212 -0.155522)
(-16.4947 -0.447763 -0.189152)
(-16.5067 -0.444859 -0.220891)
(-16.5256 -0.439588 -0.248045)
(-16.5511 -0.430365 -0.268747)
(-16.5815 -0.419023 -0.279882)
(-16.6131 -0.407137 -0.280362)
(-16.6457 -0.396446 -0.271475)
(-16.678 -0.38599 -0.253406)
(-16.7097 -0.380074 -0.228057)
(-16.7398 -0.374013 -0.193808)
(-16.7669 -0.357257 -0.144059)
(-16.7887 -0.337597 -0.0802789)
(-16.7579 -0.339196 -0.0261383)
(-16.614 -0.237863 -0.0110657)
(-16.651 -0.237633 -0.0266493)
(-16.644 -0.238815 -0.0406739)
(-16.6372 -0.239683 -0.0611284)
(-16.6316 -0.240682 -0.0845132)
(-16.6288 -0.241668 -0.109882)
(-16.6296 -0.242263 -0.135796)
(-16.6348 -0.242174 -0.161721)
(-16.6444 -0.241094 -0.185976)
(-16.6587 -0.23895 -0.206223)
(-16.6772 -0.234915 -0.221327)
(-16.6994 -0.229206 -0.229653)
(-16.7234 -0.222707 -0.230062)
(-16.7478 -0.216792 -0.22324)
(-16.7723 -0.211247 -0.207975)
(-16.7967 -0.208622 -0.186962)
(-16.8173 -0.208878 -0.158363)
(-16.833 -0.20475 -0.116366)
(-16.8473 -0.20321 -0.0681282)
(-16.8141 -0.205605 -0.0199233)
(-16.7253 -0.100515 -0.0105978)
(-16.7568 -0.100573 -0.0255878)
(-16.7525 -0.101503 -0.0380091)
(-16.7492 -0.101907 -0.0547057)
(-16.7477 -0.102219 -0.0730246)
(-16.7486 -0.102698 -0.0924024)
(-16.7515 -0.102971 -0.111817)
(-16.7568 -0.10272 -0.130878)
(-16.7649 -0.101711 -0.148349)
(-16.7757 -0.100126 -0.162446)
(-16.7886 -0.0976774 -0.172382)
(-16.8031 -0.0944923 -0.177402)
(-16.8186 -0.090709 -0.177516)
(-16.8342 -0.0876434 -0.171817)
(-16.8509 -0.0844094 -0.15888)
(-16.8678 -0.0836498 -0.143696)
(-16.8791 -0.0840332 -0.121499)
(-16.8859 -0.0796727 -0.0879737)
(-16.8946 -0.0788568 -0.052083)
(-16.8648 -0.0800814 -0.0157954)
(-16.8014 -0.0450898 -0.00927787)
(-16.826 -0.0451335 -0.0220791)
(-16.8237 -0.0456534 -0.0315978)
(-16.8226 -0.0455654 -0.0433831)
(-16.8229 -0.045008 -0.0557287)
(-16.8248 -0.0443568 -0.0694811)
(-16.8279 -0.0438249 -0.0838073)
(-16.8321 -0.0431075 -0.0976036)
(-16.8376 -0.0420647 -0.110007)
(-16.8444 -0.0406823 -0.119957)
(-16.8518 -0.0390241 -0.127236)
(-16.8595 -0.037496 -0.131012)
(-16.8676 -0.0361994 -0.131493)
(-16.8762 -0.0357961 -0.127066)
(-16.8869 -0.034931 -0.115281)
(-16.8967 -0.0367499 -0.105524)
(-16.899 -0.0370319 -0.0883167)
(-16.9006 -0.0319954 -0.063459)
(-16.9064 -0.0324285 -0.0378624)
(-16.8831 -0.0338124 -0.0114231)
(-16.8521 -0.0243233 -0.00736975)
(-16.8688 -0.0242385 -0.016866)
(-16.8676 -0.024465 -0.0228693)
(-16.8673 -0.0244026 -0.0305311)
(-16.8676 -0.0241886 -0.0385353)
(-16.8683 -0.0236822 -0.0473157)
(-16.8697 -0.0230723 -0.0564858)
(-16.8716 -0.0223678 -0.0655691)
(-16.8741 -0.0218805 -0.0737622)
(-16.8772 -0.0213616 -0.0801802)
(-16.8802 -0.0207184 -0.0847529)
(-16.8831 -0.0200512 -0.0870069)
(-16.8866 -0.0195913 -0.0872129)
(-16.8915 -0.0201863 -0.0829792)
(-16.8983 -0.0209749 -0.0741877)
(-16.9007 -0.0239283 -0.0717445)
(-16.8966 -0.00373445 -0.0262632)
(-16.8997 -0.00246391 -0.0219667)
(-16.9042 0.000459193 -0.00742239)
(-16.8908 -0.0172837 -0.00657566)
(-16.8832 -0.013066 -0.00470596)
(-16.8926 -0.0126253 -0.00998397)
(-16.8922 -0.0125236 -0.0123506)
(-16.8922 -0.012395 -0.0159129)
(-16.8923 -0.0121527 -0.0198946)
(-16.8924 -0.0118441 -0.0243062)
(-16.8927 -0.0115852 -0.0289391)
(-16.8931 -0.0113304 -0.0334329)
(-16.8939 -0.0112017 -0.0375059)
(-16.8947 -0.0111149 -0.0410711)
(-16.8954 -0.0111658 -0.0439767)
(-16.8958 -0.0113586 -0.0450497)
(-16.8966 -0.0112415 -0.0441914)
(-16.8986 -0.0113305 -0.0405406)
(-16.9014 -0.0123033 -0.037989)
(-16.9006 -0.00314047 -0.0113891)
(-16.899 -0.00688343 -0.0236936)
(-16.9018 -0.00868738 -0.0187444)
(-16.9037 -0.00949722 -0.00925741)
(-16.8958 -0.0091532 -0.0016569)
(-18.2411 -3.33062 0.138655)
(-18.0488 -3.54001 0.349502)
(-17.8702 -3.80856 0.345794)
(-17.7336 -3.97989 0.261805)
(-17.6068 -4.13624 0.122631)
(-17.5568 -4.19844 -0.0409732)
(-17.5019 -4.27424 -0.209156)
(-17.483 -4.31052 -0.398395)
(-17.5098 -4.3054 -0.597717)
(-17.5564 -4.27959 -0.809493)
(-17.6799 -4.18261 -1.02899)
(-17.9608 -3.93407 -1.19816)
(-18.3091 -3.67199 -1.16755)
(-18.4456 -3.61751 -1.00435)
(-18.4759 -3.73015 -0.841674)
(-18.4366 -3.90165 -0.877769)
(-18.5138 -3.96472 -1.13388)
(-18.8084 -3.79076 -1.54558)
(-19.4813 -3.35848 -1.94483)
(-21.2405 -1.79413 -1.115)
(-17.9094 -2.58134 0.212763)
(-17.7216 -2.83023 0.41354)
(-17.5663 -3.01412 0.385612)
(-17.4604 -3.14075 0.280063)
(-17.3466 -3.26747 0.130397)
(-17.3047 -3.3176 -0.0426483)
(-17.2597 -3.37825 -0.211943)
(-17.2468 -3.41407 -0.410876)
(-17.2702 -3.41739 -0.615612)
(-17.3024 -3.4127 -0.83254)
(-17.4094 -3.34425 -1.07143)
(-17.6247 -3.16703 -1.2452)
(-17.9731 -2.88142 -1.20382)
(-18.1867 -2.77817 -0.925713)
(-18.1161 -2.93069 -0.738746)
(-18.0915 -3.08987 -0.800402)
(-18.1766 -3.14716 -1.06088)
(-18.4548 -3.01319 -1.38095)
(-19.0396 -2.60989 -1.73468)
(-20.1133 -1.64317 -0.901888)
(-17.5161 -2.34472 0.0424202)
(-17.5139 -2.46804 0.172525)
(-17.4086 -2.60865 0.218587)
(-17.2971 -2.72756 0.159095)
(-17.2116 -2.82829 0.0533487)
(-17.1545 -2.88396 -0.0740574)
(-17.1171 -2.93423 -0.217601)
(-17.1047 -2.96663 -0.368783)
(-17.1142 -2.97854 -0.534752)
(-17.1704 -2.96483 -0.691283)
(-17.2846 -2.89167 -0.815541)
(-17.4945 -2.73271 -0.897205)
(-17.658 -2.57535 -0.910862)
(-17.774 -2.5061 -0.880529)
(-17.9095 -2.55728 -0.798257)
(-17.9618 -2.65983 -0.796205)
(-18.0784 -2.69874 -0.915077)
(-18.3377 -2.601 -1.09349)
(-18.8431 -2.34249 -1.03725)
(-19.6563 -1.61617 -0.446287)
(-17.3284 -1.74192 0.145998)
(-17.2275 -1.87318 0.292467)
(-17.1192 -1.97995 0.286169)
(-17.0401 -2.06824 0.192583)
(-16.9519 -2.14484 0.0702624)
(-16.9137 -2.19156 -0.074702)
(-16.8819 -2.22738 -0.223606)
(-16.8775 -2.25013 -0.396004)
(-16.9054 -2.2558 -0.569778)
(-16.9472 -2.23987 -0.742036)
(-17.0365 -2.19843 -0.906482)
(-17.1797 -2.1188 -1.01291)
(-17.4492 -1.94409 -0.982967)
(-17.6495 -1.8596 -0.787461)
(-17.6059 -1.93176 -0.670172)
(-17.6223 -2.00851 -0.704448)
(-17.7218 -2.02471 -0.849303)
(-17.9475 -1.92868 -0.967333)
(-18.3521 -1.70252 -0.975036)
(-18.7755 -1.37956 -0.471273)
(-16.9682 -1.44629 -0.0309057)
(-17.064 -1.47096 0.038967)
(-16.9903 -1.56144 0.0996793)
(-16.8993 -1.6453 0.0588088)
(-16.8433 -1.71124 -0.0158213)
(-16.7913 -1.75819 -0.106629)
(-16.7696 -1.79288 -0.218035)
(-16.7658 -1.81634 -0.329526)
(-16.7836 -1.81932 -0.452803)
(-16.8524 -1.79946 -0.554599)
(-16.9532 -1.74332 -0.609332)
(-17.1036 -1.64127 -0.629449)
(-17.1636 -1.60416 -0.652166)
(-17.2482 -1.56382 -0.725719)
(-17.4376 -1.5509 -0.702059)
(-17.5265 -1.58951 -0.668135)
(-17.6517 -1.59362 -0.671259)
(-17.8521 -1.52781 -0.68261)
(-18.1275 -1.39789 -0.471834)
(-18.3593 -1.15835 -0.0955002)
(-16.9524 -0.8733 0.100575)
(-16.9029 -0.931935 0.193289)
(-16.8015 -0.976169 0.182337)
(-16.7353 -1.02222 0.105221)
(-16.6654 -1.07034 0.0105245)
(-16.6322 -1.10018 -0.101887)
(-16.6111 -1.12467 -0.219129)
(-16.6166 -1.13902 -0.35484)
(-16.6532 -1.13669 -0.484102)
(-16.7038 -1.12688 -0.611568)
(-16.7877 -1.11519 -0.721068)
(-16.8927 -1.09943 -0.778951)
(-17.1046 -0.991915 -0.751645)
(-17.2654 -0.933751 -0.60438)
(-17.2365 -0.953547 -0.542051)
(-17.2733 -0.984539 -0.559727)
(-17.3672 -0.985133 -0.615926)
(-17.5329 -0.939747 -0.621818)
(-17.7847 -0.860305 -0.535482)
(-17.8846 -0.827838 -0.260025)
(-16.8252 -0.527062 -0.0461706)
(-16.9239 -0.52881 -0.0286895)
(-16.8711 -0.564354 -0.0161531)
(-16.7971 -0.623245 -0.0342759)
(-16.7577 -0.659693 -0.0779563)
(-16.7148 -0.693762 -0.131982)
(-16.7008 -0.714065 -0.202867)
(-16.7018 -0.726043 -0.269456)
(-16.7249 -0.725544 -0.342572)
(-16.7914 -0.701207 -0.391344)
(-16.8756 -0.671189 -0.425136)
(-16.981 -0.632437 -0.454089)
(-17.0181 -0.620197 -0.457346)
(-17.06 -0.59198 -0.536284)
(-17.2326 -0.569332 -0.541505)
(-17.3288 -0.576389 -0.49348)
(-17.432 -0.570181 -0.423514)
(-17.558 -0.546218 -0.367302)
(-17.6827 -0.516736 -0.223514)
(-17.7014 -0.454472 -0.0245595)
(-16.981 -0.186882 0.033567)
(-16.9879 -0.197915 0.0626647)
(-16.9215 -0.221749 0.0617755)
(-16.8741 -0.235749 0.0148171)
(-16.8255 -0.252644 -0.0472918)
(-16.8019 -0.264566 -0.122607)
(-16.7878 -0.276279 -0.201078)
(-16.796 -0.284299 -0.290652)
(-16.8249 -0.285625 -0.370672)
(-16.8649 -0.286843 -0.447907)
(-16.9312 -0.276622 -0.49101)
(-17.0117 -0.254112 -0.501657)
(-17.1292 -0.239494 -0.495322)
(-17.2212 -0.23774 -0.447599)
(-17.2285 -0.226977 -0.41743)
(-17.268 -0.234354 -0.411344)
(-17.3382 -0.238488 -0.410033)
(-17.4348 -0.221131 -0.365332)
(-17.5579 -0.184703 -0.272838)
(-17.553 -0.172848 -0.123638)
(-17.0186 -0.0229796 -0.0067935)
(-17.0634 -0.0336685 -0.00852613)
(-17.0311 -0.0463222 -0.021495)
(-16.9971 -0.0588127 -0.0503286)
(-16.9715 -0.0702574 -0.0892238)
(-16.9533 -0.0788561 -0.135228)
(-16.9461 -0.0868664 -0.186358)
(-16.9511 -0.0914755 -0.238171)
(-16.9707 -0.0913674 -0.287712)
(-17.0043 -0.088975 -0.326261)
(-17.0494 -0.0823855 -0.35267)
(-17.0998 -0.0730052 -0.364393)
(-17.1385 -0.0583641 -0.363714)
(-17.1701 -0.04882 -0.378451)
(-17.2467 -0.0596453 -0.37583)
(-17.3054 -0.0680368 -0.343461)
(-17.3661 -0.06733 -0.292772)
(-17.4265 -0.0560263 -0.230732)
(-17.47 -0.031026 -0.13052)
(-17.4385 -0.0246319 -0.0195941)
(-17.0098 0.0283634 -0.00714872)
(-17.0511 0.0215143 -0.0165581)
(-17.0312 0.0155912 -0.0309449)
(-17.0099 0.00673172 -0.0564838)
(-16.9916 0.000178315 -0.0901195)
(-16.9792 -0.00744546 -0.130368)
(-16.9738 -0.0129402 -0.173769)
(-16.9783 -0.0179304 -0.217816)
(-16.9931 -0.0183081 -0.258322)
(-17.0169 -0.0184494 -0.291593)
(-17.0464 -0.0136188 -0.315231)
(-17.0698 -0.00144072 -0.320948)
(-17.0891 0.00600064 -0.314713)
(-17.1213 -0.00187501 -0.285245)
(-17.1432 0.00563993 -0.271177)
(-17.1758 0.00457996 -0.251946)
(-17.208 0.00833606 -0.223511)
(-17.2405 0.00527167 -0.182774)
(-17.2723 0.0060773 -0.137631)
(-17.2551 0.00851301 -0.0719371)
(-16.8816 -0.046133 -0.0126626)
(-16.9186 -0.0474154 -0.0302214)
(-16.9105 -0.0497346 -0.0451295)
(-16.9023 -0.0515404 -0.0652773)
(-16.895 -0.0538648 -0.089075)
(-16.8911 -0.0560407 -0.113851)
(-16.8919 -0.0573075 -0.137649)
(-16.8983 -0.0575208 -0.161583)
(-16.9082 -0.0569957 -0.184673)
(-16.9217 -0.0565003 -0.204173)
(-16.9384 -0.0563485 -0.21876)
(-16.9612 -0.0642784 -0.227782)
(-16.9881 -0.0716401 -0.228736)
(-17.0041 -0.0707282 -0.236009)
(-17.0348 -0.0765625 -0.217781)
(-17.0657 -0.0786271 -0.190438)
(-17.0977 -0.0804099 -0.15158)
(-17.1294 -0.0742471 -0.112911)
(-17.1523 -0.0658017 -0.0436497)
(-17.1218 -0.0631139 0.0137545)
(-16.8473 -0.0853803 -0.00990851)
(-16.8812 -0.0876577 -0.0247285)
(-16.877 -0.0891366 -0.0377063)
(-16.8731 -0.0900078 -0.0556052)
(-16.8709 -0.0916057 -0.0771632)
(-16.8718 -0.0937729 -0.0999376)
(-16.875 -0.0957016 -0.121887)
(-16.8805 -0.0979635 -0.142485)
(-16.8886 -0.100156 -0.159085)
(-16.8997 -0.101422 -0.171407)
(-16.9126 -0.0971544 -0.17898)
(-16.9249 -0.0842954 -0.181337)
(-16.934 -0.0752363 -0.178615)
(-16.9518 -0.0733351 -0.160522)
(-16.9594 -0.0671065 -0.154019)
(-16.9721 -0.0667474 -0.141182)
(-16.9844 -0.0706007 -0.12831)
(-16.9961 -0.0748633 -0.101365)
(-17.0175 -0.0812552 -0.0797347)
(-16.9915 -0.0823913 -0.0406774)
(-16.8327 -0.0874214 -0.0100868)
(-16.8611 -0.0877697 -0.0241359)
(-16.8583 -0.0891215 -0.0344458)
(-16.8562 -0.0897682 -0.046664)
(-16.8544 -0.089975 -0.0587025)
(-16.8538 -0.0885336 -0.0670989)
(-16.8572 -0.0868658 -0.0769247)
(-16.8625 -0.0850423 -0.0872181)
(-16.8681 -0.0825918 -0.0975029)
(-16.8739 -0.0795379 -0.106664)
(-16.8801 -0.0782416 -0.114099)
(-16.8881 -0.0838988 -0.119717)
(-16.8977 -0.0898531 -0.126168)
(-16.9054 -0.0897078 -0.134148)
(-16.9162 -0.0913954 -0.121273)
(-16.9265 -0.0935279 -0.105198)
(-16.9346 -0.0945145 -0.0847255)
(-16.9399 -0.0891581 -0.0617629)
(-16.9466 -0.0830178 -0.0316161)
(-16.9246 -0.0816331 -0.005545)
(-16.8737 -0.0413782 -0.00615903)
(-16.8875 -0.0400272 -0.0136647)
(-16.8877 -0.0403653 -0.0174349)
(-16.8879 -0.0412255 -0.021912)
(-16.8895 -0.0426578 -0.0279799)
(-16.8933 -0.0439022 -0.0382066)
(-16.8962 -0.0440644 -0.0479805)
(-16.899 -0.0433318 -0.0572861)
(-16.8988 -0.0459005 -0.0653201)
(-16.8985 -0.0489791 -0.0702156)
(-16.8973 -0.049982 -0.0735839)
(-16.8973 -0.0430651 -0.0743227)
(-16.8977 -0.0364178 -0.0716274)
(-16.8991 -0.0392466 -0.0651485)
(-16.9003 -0.0389968 -0.0617036)
(-16.901 -0.0398479 -0.0563803)
(-16.9026 -0.0366636 -0.0511574)
(-16.9096 -0.0332998 -0.0384902)
(-16.9159 -0.0333599 -0.0252479)
(-16.9006 -0.0346634 -0.00978308)
(-16.8976 -0.022021 -0.00274674)
(-16.9046 -0.0197629 -0.0064218)
(-16.9038 -0.0184267 -0.00928244)
(-16.9033 -0.0177579 -0.0120212)
(-16.902 -0.0172788 -0.0138596)
(-16.8988 -0.0169642 -0.0133211)
(-16.8964 -0.0171902 -0.0136477)
(-16.8945 -0.0178266 -0.0149676)
(-16.896 -0.0158266 -0.0161918)
(-16.8973 -0.0137406 -0.0187199)
(-16.8994 -0.015218 -0.0207057)
(-16.9019 -0.0215804 -0.0226214)
(-16.9041 -0.0247266 -0.0258529)
(-16.908 -0.0226789 -0.0247468)
(-16.9093 -0.0226325 -0.0217014)
(-16.9097 -0.0188716 -0.0186312)
(-16.9111 -0.0136586 -0.0116083)
(-16.9095 -0.0127502 -0.00602278)
(-16.9075 -0.0126964 -0.000338997)
(-16.9015 -0.0114345 0.00367074)
(-21.9002 -4.56214 0.147621)
(-21.8934 -4.79142 0.289694)
(-21.8417 -4.95699 0.244469)
(-21.8013 -5.07844 0.148117)
(-21.7556 -5.19379 0.0118345)
(-21.7382 -5.24837 -0.157653)
(-21.7212 -5.30334 -0.339241)
(-21.7225 -5.32875 -0.54612)
(-21.7446 -5.31539 -0.765157)
(-21.7731 -5.28763 -0.998205)
(-21.8359 -5.20107 -1.24716)
(-21.9622 -5.00081 -1.45324)
(-22.147 -4.69512 -1.49707)
(-22.3072 -4.49312 -1.32685)
(-22.315 -4.62282 -1.19551)
(-22.3488 -4.73458 -1.29574)
(-22.4436 -4.71034 -1.57994)
(-22.6144 -4.4552 -2.01964)
(-22.8976 -3.81897 -2.36703)
(-24.0983 -1.52817 -1.16597)
(-21.0033 -4.30335 0.103462)
(-21.0274 -4.45125 0.218013)
(-20.9906 -4.57332 0.196242)
(-20.957 -4.67161 0.106707)
(-20.924 -4.75962 -0.015131)
(-20.9069 -4.80711 -0.166551)
(-20.8969 -4.84816 -0.333874)
(-20.901 -4.86911 -0.517528)
(-20.9185 -4.86262 -0.716986)
(-20.9491 -4.83869 -0.926819)
(-21.0107 -4.77042 -1.13111)
(-21.1215 -4.62624 -1.28145)
(-21.2696 -4.41747 -1.30777)
(-21.3869 -4.29772 -1.22031)
(-21.4482 -4.35104 -1.13175)
(-21.5192 -4.41289 -1.19289)
(-21.628 -4.3828 -1.39686)
(-21.847 -4.16368 -1.70605)
(-22.269 -3.53761 -2.02838)
(-23.0317 -2.26258 -1.14496)
(-20.4545 -4.55671 0.0870914)
(-20.4577 -4.68686 0.187847)
(-20.3978 -4.81007 0.170023)
(-20.3507 -4.90746 0.086927)
(-20.3054 -4.98968 -0.0283261)
(-20.2816 -5.03994 -0.171281)
(-20.2658 -5.0767 -0.33028)
(-20.2684 -5.09506 -0.504657)
(-20.2892 -5.08973 -0.69235)
(-20.3276 -5.05848 -0.885097)
(-20.403 -4.98792 -1.06985)
(-20.5392 -4.85276 -1.20812)
(-20.7174 -4.65907 -1.25046)
(-20.868 -4.53294 -1.17724)
(-20.9189 -4.57239 -1.10105)
(-20.9718 -4.63866 -1.14968)
(-21.0844 -4.60736 -1.31714)
(-21.3071 -4.42191 -1.56277)
(-21.6931 -3.94808 -1.51208)
(-22.4688 -2.56863 -0.590175)
(-19.543 -4.13163 0.0578493)
(-19.5947 -4.18793 0.133384)
(-19.5537 -4.27122 0.126913)
(-19.5193 -4.34126 0.0511491)
(-19.489 -4.39803 -0.0515633)
(-19.4702 -4.43635 -0.178793)
(-19.4635 -4.46142 -0.322262)
(-19.4687 -4.47453 -0.477268)
(-19.488 -4.46987 -0.644381)
(-19.5267 -4.44405 -0.813114)
(-19.5941 -4.39154 -0.960513)
(-19.6998 -4.30392 -1.0543)
(-19.8179 -4.20093 -1.07122)
(-19.925 -4.14038 -1.04731)
(-20.0154 -4.13447 -1.00621)
(-20.1026 -4.15661 -1.02345)
(-20.2337 -4.11401 -1.11745)
(-20.4498 -3.96002 -1.20213)
(-20.8565 -3.46202 -1.24534)
(-21.28 -3.06012 -0.719944)
(-18.9079 -4.20848 0.0384699)
(-18.933 -4.25968 0.0934459)
(-18.874 -4.34743 0.0847681)
(-18.8245 -4.41095 0.02191)
(-18.7817 -4.459 -0.0698319)
(-18.7558 -4.49367 -0.183125)
(-18.7429 -4.51387 -0.3127)
(-18.7469 -4.52193 -0.451943)
(-18.7706 -4.51441 -0.598354)
(-18.8208 -4.48259 -0.739214)
(-18.9033 -4.4304 -0.860875)
(-19.0298 -4.35642 -0.948097)
(-19.1751 -4.26526 -0.991789)
(-19.3072 -4.18721 -0.978243)
(-19.3905 -4.1901 -0.943766)
(-19.4612 -4.21728 -0.948764)
(-19.5825 -4.17873 -0.994844)
(-19.7862 -4.05483 -1.04666)
(-20.1226 -3.82461 -0.794982)
(-20.5074 -3.09721 -0.158884)
(-18.0601 -3.54798 0.027872)
(-18.1226 -3.55527 0.0638416)
(-18.0931 -3.59968 0.0566683)
(-18.0641 -3.63806 -0.00302576)
(-18.04 -3.66803 -0.0848802)
(-18.0254 -3.68946 -0.185852)
(-18.0223 -3.70087 -0.300107)
(-18.0321 -3.70434 -0.422525)
(-18.056 -3.69428 -0.547523)
(-18.0997 -3.67181 -0.668276)
(-18.1634 -3.63825 -0.764803)
(-18.2491 -3.59764 -0.821219)
(-18.3331 -3.56954 -0.82998)
(-18.4205 -3.54829 -0.827784)
(-18.5191 -3.52593 -0.815802)
(-18.6208 -3.51337 -0.80034)
(-18.7466 -3.47381 -0.790889)
(-18.9273 -3.39007 -0.712708)
(-19.218 -3.10185 -0.654717)
(-19.3529 -3.1964 -0.446197)
(-17.4798 -3.35096 0.00236938)
(-17.5181 -3.36991 0.0193823)
(-17.4716 -3.41191 0.011184)
(-17.43 -3.44569 -0.0331083)
(-17.3979 -3.47034 -0.100357)
(-17.3769 -3.48818 -0.18343)
(-17.3695 -3.49784 -0.279005)
(-17.3788 -3.49755 -0.378345)
(-17.4059 -3.4875 -0.478134)
(-17.4582 -3.46573 -0.566274)
(-17.5354 -3.43435 -0.638662)
(-17.6304 -3.40435 -0.69276)
(-17.743 -3.36442 -0.733394)
(-17.8458 -3.33752 -0.742319)
(-17.9328 -3.33208 -0.724004)
(-18.0141 -3.33131 -0.699575)
(-18.1215 -3.31038 -0.660031)
(-18.2727 -3.24825 -0.611079)
(-18.4195 -3.18947 -0.315187)
(-18.5627 -2.79874 0.0815034)
(-16.8826 -2.47015 0.00890684)
(-16.9531 -2.46069 0.0167225)
(-16.9376 -2.47489 0.00616722)
(-16.9181 -2.49236 -0.0398935)
(-16.9019 -2.5073 -0.100672)
(-16.8933 -2.51824 -0.17553)
(-16.895 -2.52384 -0.258082)
(-16.9086 -2.52277 -0.344583)
(-16.9351 -2.51497 -0.428286)
(-16.9736 -2.50204 -0.506932)
(-17.0208 -2.48991 -0.564565)
(-17.0797 -2.48112 -0.597124)
(-17.1289 -2.48786 -0.598397)
(-17.1991 -2.48421 -0.594022)
(-17.2884 -2.46304 -0.583536)
(-17.3859 -2.44013 -0.550787)
(-17.4901 -2.41224 -0.494282)
(-17.6018 -2.38512 -0.364685)
(-17.7816 -2.26449 -0.338162)
(-17.733 -2.52104 -0.295518)
(-16.6079 -1.98909 -0.0150443)
(-16.6443 -2.0009 -0.0225618)
(-16.6105 -2.01999 -0.0357451)
(-16.5774 -2.03936 -0.0651129)
(-16.5546 -2.05384 -0.109168)
(-16.5374 -2.06662 -0.162871)
(-16.5352 -2.07269 -0.222879)
(-16.5444 -2.07441 -0.282346)
(-16.5708 -2.06911 -0.340215)
(-16.6113 -2.06132 -0.386755)
(-16.6744 -2.04811 -0.429094)
(-16.7375 -2.04259 -0.460521)
(-16.832 -2.01894 -0.487245)
(-16.904 -2.00759 -0.493058)
(-16.9704 -2.00138 -0.473561)
(-17.0291 -2.00142 -0.438492)
(-17.104 -1.98932 -0.379218)
(-17.1776 -1.96524 -0.338446)
(-17.1674 -2.0026 -0.108749)
(-17.26 -1.78356 0.105565)
(-16.505 -1.14391 -0.00380552)
(-16.5728 -1.13771 -0.0124234)
(-16.5679 -1.14768 -0.0270858)
(-16.559 -1.1542 -0.0614741)
(-16.5486 -1.16493 -0.101768)
(-16.5445 -1.16993 -0.149855)
(-16.5464 -1.17474 -0.200028)
(-16.5576 -1.17327 -0.2519)
(-16.5752 -1.17167 -0.301058)
(-16.6001 -1.16364 -0.346669)
(-16.6247 -1.15903 -0.37637)
(-16.6617 -1.14888 -0.390026)
(-16.6832 -1.15079 -0.386626)
(-16.7302 -1.14273 -0.37539)
(-16.7962 -1.13619 -0.36265)
(-16.868 -1.11975 -0.329796)
(-16.931 -1.11277 -0.283474)
(-16.9839 -1.10016 -0.187704)
(-17.0842 -1.09727 -0.19232)
(-16.9236 -1.236 -0.190414)
(-16.5981 -0.69254 -0.0199946)
(-16.6287 -0.694915 -0.0395586)
(-16.6066 -0.703591 -0.0560629)
(-16.5911 -0.709718 -0.0750057)
(-16.5778 -0.716885 -0.101012)
(-16.5706 -0.720602 -0.129212)
(-16.5688 -0.723702 -0.158394)
(-16.5753 -0.723382 -0.185272)
(-16.5886 -0.72264 -0.211477)
(-16.6132 -0.717372 -0.227833)
(-16.65 -0.71228 -0.247668)
(-16.6893 -0.703852 -0.264548)
(-16.745 -0.694083 -0.276934)
(-16.7852 -0.685973 -0.275227)
(-16.8059 -0.687461 -0.257868)
(-16.8309 -0.68366 -0.231804)
(-16.8525 -0.682219 -0.19009)
(-16.8828 -0.667272 -0.181756)
(-16.8497 -0.689432 -0.0527983)
(-16.9262 -0.651387 0.0605072)
(-16.7172 -0.288941 -0.00617405)
(-16.7656 -0.292004 -0.0224077)
(-16.7664 -0.295763 -0.0369164)
(-16.765 -0.299001 -0.0595208)
(-16.7629 -0.3018 -0.0849093)
(-16.7636 -0.303845 -0.112618)
(-16.7667 -0.304638 -0.140182)
(-16.7735 -0.304958 -0.167624)
(-16.7821 -0.304085 -0.19186)
(-16.7933 -0.302856 -0.213251)
(-16.803 -0.298167 -0.225397)
(-16.8193 -0.293082 -0.229451)
(-16.8282 -0.287681 -0.225146)
(-16.8503 -0.284466 -0.218264)
(-16.8832 -0.282375 -0.206216)
(-16.9172 -0.282142 -0.185328)
(-16.9437 -0.281732 -0.159561)
(-16.9645 -0.280003 -0.102851)
(-16.9956 -0.295 -0.0909717)
(-16.9188 -0.300815 -0.0721165)
(-16.8294 -0.134875 -0.013869)
(-16.8539 -0.132504 -0.0303336)
(-16.8491 -0.13169 -0.0419476)
(-16.8454 -0.131397 -0.0522711)
(-16.8436 -0.132189 -0.0644227)
(-16.8436 -0.133273 -0.076697)
(-16.846 -0.133954 -0.0890976)
(-16.8495 -0.134598 -0.100551)
(-16.8551 -0.135416 -0.110819)
(-16.8615 -0.137307 -0.117809)
(-16.8719 -0.138636 -0.124174)
(-16.8825 -0.136684 -0.12998)
(-16.9004 -0.135476 -0.135517)
(-16.9105 -0.130918 -0.13149)
(-16.9158 -0.124822 -0.11957)
(-16.9225 -0.120577 -0.106304)
(-16.9316 -0.11864 -0.0873284)
(-16.9436 -0.114292 -0.0741144)
(-16.9461 -0.116971 -0.0309862)
(-16.9411 -0.123774 0.0074207)
(-16.864 -0.0527456 -0.00201535)
(-16.8894 -0.055973 -0.0108921)
(-16.8932 -0.0584601 -0.0192508)
(-16.8952 -0.059884 -0.030102)
(-16.8961 -0.0607469 -0.0401445)
(-16.8978 -0.0616837 -0.0500944)
(-16.9001 -0.0619811 -0.0600507)
(-16.9031 -0.0618927 -0.0708525)
(-16.905 -0.0599735 -0.08128)
(-16.9059 -0.0581327 -0.0913481)
(-16.9025 -0.0536557 -0.0962917)
(-16.9017 -0.0534089 -0.0925382)
(-16.8948 -0.0510034 -0.084612)
(-16.9004 -0.0486628 -0.082554)
(-16.9145 -0.0487457 -0.075052)
(-16.9275 -0.0484062 -0.0619121)
(-16.9347 -0.0470885 -0.0525244)
(-16.9394 -0.0486838 -0.0294988)
(-16.9492 -0.0470928 -0.023845)
(-16.9209 -0.0484865 -0.0160482)
(-16.9053 -0.0212063 -0.00519694)
(-16.907 -0.017673 -0.00842328)
(-16.9038 -0.0161219 -0.00988199)
(-16.9022 -0.015928 -0.00992512)
(-16.9016 -0.0167215 -0.0105123)
(-16.9007 -0.0176728 -0.0109588)
(-16.8999 -0.0188046 -0.0117007)
(-16.8987 -0.019733 -0.012414)
(-16.8985 -0.0213643 -0.0129935)
(-16.8992 -0.0228709 -0.014261)
(-16.9031 -0.0254094 -0.0147769)
(-16.9077 -0.0244506 -0.0183601)
(-16.9159 -0.0244435 -0.0213808)
(-16.9137 -0.0242973 -0.0173781)
(-16.9045 -0.0223998 -0.0161983)
(-16.8978 -0.0203601 -0.0166915)
(-16.8987 -0.0206042 -0.0146343)
(-16.9013 -0.0188078 -0.0141054)
(-16.9044 -0.0196417 -0.00594304)
(-16.8989 -0.0184637 0.00291204)
(-22.5442 -0.951622 0.0745649)
(-22.6286 -1.09648 0.172418)
(-22.6105 -1.24455 0.167723)
(-22.5946 -1.36715 0.102689)
(-22.5772 -1.47963 -0.013974)
(-22.5705 -1.54836 -0.16996)
(-22.5674 -1.60361 -0.346387)
(-22.5744 -1.63217 -0.544819)
(-22.5941 -1.62151 -0.753044)
(-22.6215 -1.58316 -0.96214)
(-22.6606 -1.49455 -1.16231)
(-22.7222 -1.31475 -1.3074)
(-22.7861 -1.10536 -1.35278)
(-22.8636 -0.95838 -1.30257)
(-22.9168 -1.00927 -1.26771)
(-22.9808 -1.05028 -1.34033)
(-23.0716 -0.947218 -1.49962)
(-23.1686 -0.610522 -1.71204)
(-23.3559 0.0885847 -1.72996)
(-24.1015 1.53281 -0.744388)
(-22.0898 -0.388514 0.0710484)
(-22.1785 -0.507355 0.165607)
(-22.1563 -0.63797 0.16139)
(-22.1398 -0.748072 0.0953825)
(-22.1222 -0.847093 -0.0167629)
(-22.1134 -0.913392 -0.16525)
(-22.1109 -0.963908 -0.334012)
(-22.1192 -0.992233 -0.52103)
(-22.1386 -0.989262 -0.718977)
(-22.1684 -0.95703 -0.918553)
(-22.2107 -0.879177 -1.10329)
(-22.271 -0.732476 -1.23612)
(-22.3362 -0.565244 -1.27499)
(-22.4238 -0.453631 -1.23107)
(-22.4845 -0.491268 -1.19586)
(-22.5497 -0.534221 -1.25619)
(-22.6496 -0.461939 -1.40635)
(-22.7442 -0.186962 -1.57647)
(-23.0076 0.418745 -1.46214)
(-23.4698 1.1593 -0.72082)
(-21.5296 -0.527082 0.0645051)
(-21.5819 -0.65608 0.154965)
(-21.5538 -0.776258 0.153274)
(-21.5219 -0.889058 0.0867845)
(-21.4931 -0.985508 -0.0211899)
(-21.4782 -1.05483 -0.16288)
(-21.4719 -1.10396 -0.324278)
(-21.4791 -1.13207 -0.502409)
(-21.5028 -1.13248 -0.69178)
(-21.5398 -1.09885 -0.88196)