/*--------------------------------*- C++ -*----------------------------------*\
| =========                 |                                                 |
| \\      /  F ield         | OpenFOAM: The Open Source CFD Toolbox           |
|  \\    /   O peration     | Version:  1.7.x                                 |
|   \\  /    A nd           | Web:      www.OpenFOAM.com                      |
|    \\/     M anipulation  |                                                 |
\*---------------------------------------------------------------------------*/
FoamFile
{
    version     2.0;
    format      ascii;
    class       scalarField;
    location    "0.0045/lagrangian/reactingCloud1";
    object      cp;
}
// * * * * * * * * * * * * * * * * * * * * * * * * * * * * * * * * * * * * * //


25
(
4186.7662
4186.7673
4186.7676
4186.7648
4186.7669
4186.7649
4186.7648
4186.7653
4186.7673
4186.7654
4186.7661
4186.7645
4186.7658
4186.7655
4186.7684
4186.7662
4186.7683
4186.7663
4186.7669
4186.7698
4186.7655
4186.7658
4186.7674
4186.7683
4186.7707
)


// ************************************************************************* //
