/*--------------------------------*- C++ -*----------------------------------*\
| =========                 |                                                 |
| \\      /  F ield         | OpenFOAM: The Open Source CFD Toolbox           |
|  \\    /   O peration     | Version:  1.7.x                                 |
|   \\  /    A nd           | Web:      www.OpenFOAM.com                      |
|    \\/     M anipulation  |                                                 |
\*---------------------------------------------------------------------------*/
FoamFile
{
    version     2.0;
    format      ascii;
    class       scalarField;
    location    "0.0045/lagrangian/reactingCloud1";
    object      d;
}
// * * * * * * * * * * * * * * * * * * * * * * * * * * * * * * * * * * * * * //


25
(
9.9748334e-05
9.974826e-05
9.9748224e-05
9.9748365e-05
9.9748239e-05
9.9748383e-05
9.9748381e-05
9.9748352e-05
9.9748203e-05
9.9748326e-05
9.9748311e-05
9.9748374e-05
9.9748295e-05
9.9748319e-05
9.9748141e-05
9.974832e-05
9.9748196e-05
9.9748295e-05
9.9748256e-05
9.974807e-05
9.9748344e-05
9.974833e-05
9.9748236e-05
9.9748182e-05
9.974804e-05
)


// ************************************************************************* //
