/*--------------------------------*- C++ -*----------------------------------*\
| =========                 |                                                 |
| \\      /  F ield         | OpenFOAM: The Open Source CFD Toolbox           |
|  \\    /   O peration     | Version:  1.7.x                                 |
|   \\  /    A nd           | Web:      www.OpenFOAM.com                      |
|    \\/     M anipulation  |                                                 |
\*---------------------------------------------------------------------------*/
FoamFile
{
    version     2.0;
    format      ascii;
    class       Cloud<passiveParticle>;
    location    "0.0045";
    object      positions;
}
// * * * * * * * * * * * * * * * * * * * * * * * * * * * * * * * * * * * * * //

25
(
(0.0019847555 0.001971872 0.0032101191) 165989
(0.0039821825 0.0019713415 0.0032148664) 166337
(0.005984044 0.0019751732 0.0032189913) 166336
(0.0079860076 0.0019797542 0.0032137463) 166684
(0.0099817683 0.001973386 0.0032222348) 166684
(0.0019830554 0.0039715149 0.0032067472) 166338
(0.0039851875 0.0039698304 0.0032137791) 166685
(0.005984515 0.003970888 0.0032161624) 166685
(0.0079831632 0.0039724823 0.0032186945) 167032
(0.0099819181 0.0039709352 0.0032230681) 167380
(0.0019844149 0.0059728811 0.0032105791) 166686
(0.0039847111 0.0059699169 0.0032143259) 167033
(0.0059829557 0.0059669712 0.0032195122) 167033
(0.0079828976 0.0059692387 0.0032220716) 167380
(0.0099823335 0.0059694383 0.0032240863) 167728
(0.0019850831 0.0079753739 0.0032091353) 167034
(0.0039838789 0.0079714466 0.0032165819) 167382
(0.0059824402 0.0079665815 0.0032216571) 167729
(0.0079811427 0.0079670906 0.003224372) 167729
(0.0099822232 0.0079686257 0.0032296898) 168076
(0.0019845763 0.0099716726 0.0032179947) 167730
(0.0039835416 0.0099720111 0.0032171845) 167730
(0.0059809881 0.0099672661 0.0032256996) 168077
(0.0079798859 0.0099649545 0.0032300362) 168077
(0.0099818238 0.009967919 0.0032311594) 168424
)


// ************************************************************************* //
