/*--------------------------------*- C++ -*----------------------------------*\
| =========                 |                                                 |
| \\      /  F ield         | OpenFOAM: The Open Source CFD Toolbox           |
|  \\    /   O peration     | Version:  1.7.x                                 |
|   \\  /    A nd           | Web:      www.OpenFOAM.com                      |
|    \\/     M anipulation  |                                                 |
\*---------------------------------------------------------------------------*/
FoamFile
{
    version     2.0;
    format      ascii;
    class       scalarField;
    location    "0.0045/lagrangian/reactingCloud1";
    object      T;
}
// * * * * * * * * * * * * * * * * * * * * * * * * * * * * * * * * * * * * * //


25
(
295.83194
295.83083
295.83059
295.83326
295.83127
295.83318
295.83328
295.8328
295.83081
295.83267
295.83198
295.8336
295.83235
295.83256
295.82975
295.83192
295.82984
295.83184
295.83121
295.82846
295.83257
295.83234
295.83073
295.82987
295.8276
)


// ************************************************************************* //
