/*--------------------------------*- C++ -*----------------------------------*\
| =========                 |                                                 |
| \\      /  F ield         | OpenFOAM: The Open Source CFD Toolbox           |
|  \\    /   O peration     | Version:  1.7.x                                 |
|   \\  /    A nd           | Web:      www.OpenFOAM.com                      |
|    \\/     M anipulation  |                                                 |
\*---------------------------------------------------------------------------*/
FoamFile
{
    version     2.0;
    format      ascii;
    class       vectorField;
    location    "0.0045/lagrangian/reactingCloud1";
    object      U;
}
// * * * * * * * * * * * * * * * * * * * * * * * * * * * * * * * * * * * * * //


25
(
(-0.0030856944 -0.0080266286 2.7899888)
(-0.0047195859 -0.01005274 2.7925537)
(-0.0015193156 -0.0044974692 2.791423)
(0.0035418494 0.00063618045 2.7774716)
(0.0016756117 -0.0063648794 2.7847972)
(-0.0046432217 -0.0063565445 2.780507)
(-0.0011980052 -0.0085752132 2.7896135)
(-0.00098174848 -0.0075809276 2.7873501)
(0.0023197486 -0.0030148057 2.7849996)
(0.0053499417 -0.0048447257 2.784696)
(-0.0036499489 -0.0017108074 2.7817102)
(-0.002372361 -0.0078776671 2.7853254)
(-0.0021610851 -0.01163973 2.7875281)
(0.0031558741 -0.0058332802 2.7849445)
(0.006320219 -0.0051886913 2.7817419)
(-0.00247827 0.0030273989 2.7763134)
(-0.0023144113 -0.0012362833 2.7839099)
(-0.0014111094 -0.0077037657 2.7856293)
(-0.00015177381 -0.0065338293 2.7844601)
(0.0062593812 -0.0034827843 2.7832813)
(-0.0022283019 0.00096111492 2.783963)
(-0.0020255919 0.0018327974 2.7812371)
(-0.0027009988 -0.0036875075 2.7869509)
(-0.0010828319 -0.0063304446 2.7869893)
(0.0036275327 -0.0024225092 2.7829553)
)


// ************************************************************************* //
