/*--------------------------------*- C++ -*----------------------------------*\
| =========                 |                                                 |
| \\      /  F ield         | OpenFOAM: The Open Source CFD Toolbox           |
|  \\    /   O peration     | Version:  1.7.x                                 |
|   \\  /    A nd           | Web:      www.OpenFOAM.com                      |
|    \\/     M anipulation  |                                                 |
\*---------------------------------------------------------------------------*/
FoamFile
{
    version     2.0;
    format      ascii;
    class       volScalarField;
    location    "0.0045";
    object      H2O;
}
// * * * * * * * * * * * * * * * * * * * * * * * * * * * * * * * * * * * * * //

dimensions      [0 0 0 0 0 0 0];

internalField   nonuniform List<scalar> 
206988
(
6.1339304e-114
2.717486e-114
2.5775301e-115
9.2496377e-115
1.4996983e-113
1.8528377e-112
9.1434322e-113
3.774495e-113
5.8814051e-112
1.5414466e-111
1.4312822e-111
8.964294e-113
1.0422795e-110
1.3397242e-110
1.091119e-110
1.2102618e-110
6.4968816e-111
8.6306e-112
1.4049416e-113
5.1953949e-115
4.1575416e-115
1.3706567e-115
4.2706777e-115
1.8966414e-115
4.8462635e-115
4.3882915e-113
5.751461e-114
1.3575852e-113
1.5359295e-112
1.8087625e-112
9.0020481e-113
1.1898421e-112
2.1545789e-111
1.6476307e-111
1.6794746e-111
3.2386393e-111
1.5993324e-111
4.9666325e-113
1.614896e-114
0
3.846632e-116
1.6875632e-116
1.5820828e-115
1.2113113e-115
4.2763713e-116
3.4012271e-114
2.4349872e-115
1.0518898e-114
1.1181727e-113
1.7362352e-113
5.2950979e-114
3.2908435e-113
2.6462608e-112
2.0831486e-112
2.9071112e-112
2.8699311e-112
1.7643599e-112
1.2799322e-113
5.7645179e-116
0
2.0714762e-117
1.7850839e-117
2.4560471e-116
1.4046219e-116
7.1694271e-117
1.4141111e-115
4.9415578e-117
9.5311794e-116
8.9732481e-115
2.4420071e-114
1.9537848e-115
4.636055e-114
1.5825627e-113
3.8486716e-113
7.4522885e-113
7.1432878e-113
2.6532667e-113
1.8386833e-114
4.6718675e-116
2.2170698e-115
1.455537e-118
4.7684687e-118
3.0637193e-117
2.8560771e-117
1.1037453e-116
9.6853283e-117
1.0570403e-115
1.3188558e-114
1.5345603e-115
8.7050749e-115
1.3095252e-115
4.0464682e-115
1.4033253e-114
3.6134091e-114
6.0373769e-116
1.5590134e-114
2.6062549e-113
1.0641713e-112
5.7540786e-115
6.1272069e-116
1.5707169e-118
1.051166e-118
1.9160704e-118
0
6.5730586e-118
5.9931382e-116
4.4835446e-114
1.7458641e-113
2.8567719e-115
8.1142997e-115
1.5155358e-115
1.9215683e-115
4.0747141e-114
1.0806508e-113
1.9813581e-116
5.331112e-115
1.5967504e-114
1.312976e-113
8.2131107e-116
1.2724702e-116
4.5631534e-119
3.267945e-119
9.5497287e-119
4.1181794e-117
1.8044101e-114
4.912974e-115
7.8898162e-115
5.2062449e-115
3.6043091e-115
4.8773798e-114
3.2963064e-115
0
3.095079e-115
4.7309074e-115
3.4718998e-114
1.0879514e-115
5.0671067e-116
9.7303234e-115
1.1008045e-116
2.2506123e-117
4.4470699e-120
9.0076141e-120
2.224684e-119
2.8916444e-118
1.5765381e-115
1.2366173e-115
7.0944676e-117
5.6036285e-116
0
2.5670913e-114
7.2293613e-116
1.2739865e-116
5.3626055e-116
1.7407573e-115
4.3151868e-115
4.4687387e-117
9.7865258e-117
3.2624952e-116
2.6044367e-117
3.5243704e-118
2.3466024e-121
1.4727179e-120
1.3696416e-119
6.8489748e-120
4.3613453e-117
2.5843204e-117
0
4.3475132e-116
4.785006e-115
6.2519404e-115
2.8723918e-116
1.8463255e-116
2.7772705e-117
3.7524613e-117
7.1507385e-116
2.7024453e-118
3.9023472e-117
3.3259084e-117
5.90093e-118
4.8983503e-119
2.9632356e-121
2.2787108e-122
2.8063526e-121
4.1672151e-120
5.8746745e-119
4.9368803e-120
5.3935301e-118
4.9759927e-117
5.684387e-116
9.7722807e-116
5.4472487e-117
4.7258038e-117
7.0054874e-119
5.7351386e-119
1.2049086e-116
4.7191189e-118
7.1391459e-118
5.242239e-118
1.1898791e-118
7.1502584e-120
4.549586e-122
4.653634e-123
5.7191736e-121
8.4366965e-121
7.7194413e-121
4.5345093e-121
7.227583e-119
3.953171e-118
4.9549274e-117
7.1063911e-117
3.4761239e-118
8.2782765e-118
9.2363654e-119
2.8360226e-118
1.5611132e-117
1.3318083e-118
1.0431669e-118
7.7203688e-119
1.7658465e-119
7.5696253e-121
0
2.4368002e-124
1.1137933e-121
1.7804535e-121
2.5903016e-122
1.5377991e-121
4.9688268e-120
2.8635245e-119
3.5319643e-118
6.6434554e-118
3.5836745e-119
1.2149594e-118
1.5684123e-119
4.2944583e-119
1.1753164e-118
1.6301391e-119
8.3736059e-120
5.3148812e-120
1.6180894e-120
7.9186121e-122
0
1.3589158e-124
5.4741394e-123
8.5132572e-123
7.3813167e-123
2.3782456e-122
2.9274559e-121
1.8549728e-120
2.6414514e-119
3.2871107e-119
1.9100812e-120
1.3900503e-119
1.7393494e-120
4.7441724e-120
8.8118751e-120
1.6201235e-120
7.6158225e-121
3.4732457e-121
1.5549137e-121
8.0389782e-123
0
4.1448068e-126
4.5392021e-124
6.7268971e-124
3.7761709e-124
3.2917099e-123
1.5793773e-122
1.1288359e-121
1.998628e-120
1.60951e-120
9.3305456e-122
6.8373353e-121
1.1295741e-121
4.6344146e-121
9.5110401e-121
2.8244896e-121
7.3394368e-122
2.137827e-122
1.5648029e-122
1.4142557e-123
4.852589e-128
4.7922539e-127
1.4659718e-125
1.8253733e-125
4.1701595e-125
2.5420047e-124
8.5979757e-124
6.9064466e-123
1.6549447e-121
1.1476774e-121
3.3239559e-122
5.2636113e-122
9.370464e-123
4.0545958e-122
5.205878e-122
2.4993974e-122
8.1340307e-123
1.2994328e-123
2.1357463e-123
7.3954136e-124
1.9833518e-128
5.5677283e-128
1.2567264e-126
3.0511641e-126
3.1202244e-125
2.0516925e-125
7.2409423e-125
8.249714e-124
2.7190561e-122
3.0051206e-122
3.6135414e-122
5.3822965e-123
2.3746467e-122
2.9438085e-123
8.6683547e-123
1.4207993e-122
2.5669954e-123
1.2284661e-124
4.3103721e-124
4.7496132e-124
1.5139686e-129
1.9570466e-128
1.5157072e-127
1.1437432e-126
3.1730061e-125
3.7677565e-125
1.0165406e-125
2.8661527e-124
1.2359042e-122
9.2204914e-123
1.4464695e-122
3.7700607e-123
1.0531207e-122
3.4548745e-124
2.0286889e-123
5.7021971e-123
6.3540676e-124
1.9124924e-125
6.8815581e-125
2.364439e-124
2.2945362e-129
2.6499699e-129
2.4551744e-127
4.8604495e-127
5.0501864e-126
1.40185e-125
4.4757124e-126
6.3301711e-125
2.3307205e-123
1.2301654e-123
2.5441789e-123
8.199068e-124
2.1702517e-123
3.9044998e-125
3.9688716e-124
1.3763615e-123
1.586582e-124
3.9724612e-126
1.3868849e-125
9.0118684e-125
3.1094417e-128
8.8064857e-128
1.5631121e-127
8.4395333e-127
1.1793389e-126
7.0334559e-126
2.6859091e-125
1.9644834e-125
3.9449167e-124
9.0250204e-125
2.6587386e-124
9.3772036e-125
2.8521327e-124
5.7331654e-126
5.1950856e-125
2.2582067e-124
5.0119521e-125
8.4750736e-127
3.1008955e-126
2.4127422e-125
3.3455608e-129
1.14213e-128
1.1177253e-127
4.9783845e-126
2.1798826e-124
3.4244457e-125
2.1014056e-124
4.319721e-125
1.1293564e-124
1.4809121e-125
2.1608036e-125
1.690676e-125
4.4820556e-125
1.2047975e-125
4.1678399e-126
2.216038e-125
1.8799572e-125
2.4797795e-126
2.289302e-126
6.2061565e-126
2.4518497e-129
1.4546699e-128
3.8161923e-127
3.2744944e-126
1.4868624e-124
5.1937229e-126
5.1041517e-125
2.2566935e-125
2.4707567e-125
2.0652025e-126
6.396245e-126
3.6780233e-125
1.0731353e-123
1.8885412e-123
1.4530646e-124
1.5049382e-125
3.5160406e-126
1.4190357e-125
9.7996344e-127
1.3882951e-126
6.4728785e-130
1.6036576e-128
9.7401204e-127
4.3920605e-125
2.1111096e-123
2.0811187e-123
2.7392331e-124
1.1096207e-125
1.8949181e-125
1.6431638e-125
5.1064942e-125
6.6234105e-126
2.4881483e-124
4.7905341e-124
4.0572903e-125
3.6514136e-126
1.7303779e-125
6.3860519e-126
1.5946515e-127
2.113924e-127
1.5226514e-130
4.0668076e-129
1.841514e-127
6.5300156e-126
2.8409859e-124
3.0025815e-124
4.1805448e-125
2.1969875e-126
3.1142735e-125
3.3169118e-126
1.1117394e-125
5.7471547e-127
2.7910885e-125
3.2905508e-125
3.7017152e-126
3.7223173e-127
5.4927669e-126
7.6346992e-127
2.7864876e-128
3.1353985e-128
3.2590865e-131
7.4563101e-130
1.7199995e-128
4.1144052e-127
1.6321152e-125
2.111119e-125
3.0720739e-126
1.9766073e-127
5.1630459e-126
3.5736326e-127
1.2411811e-126
5.0044506e-128
1.7997669e-126
3.6126496e-126
1.0723263e-126
2.885893e-128
6.0048594e-127
9.4099178e-128
9.4112968e-129
4.4616239e-129
4.3108736e-132
1.032699e-130
1.7150673e-129
2.0058107e-128
6.2070668e-127
9.6495774e-127
1.4169677e-127
1.1817143e-128
3.9285039e-127
6.9109681e-128
1.776293e-127
1.2803316e-128
6.0509153e-127
7.4677894e-127
4.9837683e-127
4.8902274e-129
6.5194171e-128
1.8159304e-128
2.6896132e-129
6.409904e-130
9.3016525e-133
1.0739127e-131
2.136752e-130
1.2292794e-129
2.2206971e-128
2.9764744e-128
4.9895091e-129
2.4784729e-129
1.9196197e-128
6.9311625e-128
1.4940203e-127
1.4602793e-128
1.3627483e-127
1.3665883e-127
1.0213515e-127
3.3042295e-129
8.4099127e-129
5.0772962e-129
7.1523043e-130
9.7202052e-131
4.1781862e-132
1.3851982e-131
1.2276468e-131
9.1396799e-131
2.4875575e-129
3.0360799e-129
1.0805912e-129
5.4785316e-129
9.1699809e-129
3.2504497e-128
7.6130411e-128
4.9327328e-129
1.5445563e-128
1.9843537e-128
2.3246049e-128
1.4709157e-129
2.7167262e-129
2.2563076e-129
1.2281849e-130
1.4602848e-131
4.8497041e-132
4.7357756e-132
5.896015e-133
1.0897899e-131
8.283718e-130
1.171874e-129
5.3057508e-130
1.1437467e-128
3.4238566e-128
1.1207638e-128
2.274461e-128
1.0431442e-129
1.6644318e-129
1.7762872e-129
4.2774322e-129
3.786297e-130
4.289888e-130
3.6909072e-130
1.939383e-131
2.1101851e-132
1.124127e-132
2.3558986e-132
3.433329e-131
1.8263936e-130
3.7520312e-130
1.5208089e-130
1.4321276e-130
3.90298e-129
3.7034118e-128
5.6545084e-129
4.9988311e-129
6.6749974e-130
1.0717001e-129
1.066847e-129
1.2135479e-129
2.1436791e-130
3.2631529e-131
3.3573609e-131
2.9357446e-132
4.3181073e-133
6.1902041e-133
3.7510467e-132
3.6890593e-131
1.1140252e-130
1.3078118e-129
1.0395105e-129
1.1272322e-132
1.6311943e-129
1.3166562e-128
1.2261196e-129
8.0654191e-130
2.1068057e-130
5.5148672e-130
1.8120426e-129
1.3744112e-129
3.9900703e-130
4.8247921e-131
1.1620276e-131
1.3278959e-132
1.9561038e-133
8.867186e-115
2.9503417e-112
4.793081e-113
8.9050959e-112
6.671135e-112
2.5100962e-112
1.3690573e-111
2.2093475e-112
1.5467038e-112
4.3283444e-110
8.7383038e-110
2.7553493e-110
1.551722e-110
2.7502916e-110
3.3151703e-110
2.3391437e-110
4.454606e-112
0
0
1.2538146e-112
2.8056785e-115
2.6586149e-113
2.163593e-114
3.5734684e-113
2.9702961e-113
2.1330998e-113
1.0463193e-112
2.8681259e-112
4.9420137e-115
1.1688598e-110
2.334731e-110
8.3953852e-111
4.596397e-111
4.1956235e-111
5.8845298e-111
5.9512561e-111
1.137438e-112
0
1.082737e-113
2.0387932e-113
0
1.3574539e-114
9.9531101e-115
1.3888869e-114
1.195662e-114
3.5984711e-114
5.3196875e-114
1.1209378e-112
9.5271853e-115
1.6374269e-111
3.0821865e-111
1.438968e-111
5.2923768e-112
6.3826137e-112
1.3581154e-111
1.3719039e-111
7.1926142e-114
0
9.082432e-114
1.0232032e-114
1.7353537e-117
9.2282007e-116
3.1317708e-115
2.4366009e-115
7.374977e-115
5.6902485e-115
2.5670994e-115
6.6981259e-114
1.9362755e-114
1.444142e-112
2.7261989e-112
1.7471115e-112
8.3147878e-113
1.1307124e-112
3.9458981e-112
3.3955442e-112
3.3298253e-113
2.4040744e-114
1.6967494e-114
8.3242146e-116
9.1072558e-119
4.8613406e-117
3.7904785e-116
1.3117466e-115
1.8337966e-115
2.57582e-114
2.0951213e-113
0
4.3151643e-115
2.7658303e-113
1.767906e-113
1.5923398e-113
3.4351932e-114
0
3.7611513e-114
6.1218002e-113
5.3867096e-111
5.5084212e-114
3.1007893e-115
2.831145e-116
7.8975214e-118
6.461262e-118
5.8030073e-118
1.6883738e-116
7.3458826e-115
7.0058582e-114
2.4150688e-114
6.1490199e-114
7.55042e-113
2.1485703e-113
4.9008216e-115
2.4196628e-114
1.7522581e-113
2.3781171e-114
0
1.9434194e-113
6.8515874e-112
9.3093276e-115
5.8019035e-116
1.6647669e-116
1.5456407e-118
1.681758e-118
4.0246729e-119
7.0320158e-117
9.6738102e-116
3.2121031e-114
1.7444061e-114
6.236129e-114
6.9802618e-113
6.5655424e-114
0
5.3785653e-114
2.7736477e-114
7.5253954e-116
2.1142938e-114
1.2867368e-114
4.7551244e-113
5.4570126e-116
1.3570189e-116
8.0160166e-117
3.2463129e-119
4.7647232e-119
5.3010908e-118
3.5706681e-116
3.8428625e-115
4.6527735e-116
1.2266852e-115
1.5291716e-113
1.7453713e-113
1.079948e-114
2.2598199e-117
2.2756316e-115
4.4127353e-115
2.0590594e-116
2.0556315e-115
6.7062427e-116
2.3069634e-114
1.6925556e-116
4.637176e-117
3.2225087e-117
4.7463767e-121
1.7614567e-120
1.9916416e-119
8.277942e-118
5.4918535e-117
1.3344445e-117
3.0019375e-115
7.1216223e-115
3.7961696e-114
2.9311168e-115
3.2763592e-117
2.6503266e-116
3.1799696e-117
0
1.1481433e-116
2.778317e-116
8.7701536e-116
4.7998815e-117
1.4357825e-117
8.2084239e-118
0
0
4.4304939e-121
1.083077e-119
1.3817207e-118
4.5990027e-118
1.1677119e-116
3.6461445e-116
5.5348765e-115
4.0418816e-116
8.3601358e-118
8.7536573e-118
5.0743052e-119
4.0460033e-117
1.8105611e-116
1.0017778e-116
3.5729266e-117
1.0291326e-117
3.3759938e-118
2.047996e-118
1.5223038e-121
6.7491182e-121
1.2534028e-120
0
7.3968818e-120
5.9405114e-119
8.996215e-118
2.4379237e-117
6.6594189e-116
3.8670873e-117
1.0029232e-118
1.2886927e-119
1.5413118e-117
8.6276724e-118
4.2146597e-117
1.5465863e-117
1.6384844e-118
1.3708426e-118
5.7096977e-119
3.7739023e-119
2.0146863e-123
1.7522337e-122
4.7508541e-122
0
3.1518265e-121
6.2029539e-120
8.8601092e-119
1.980843e-118
4.7143559e-117
3.6881511e-118
1.2426147e-119
3.0743599e-119
2.7145702e-118
8.6579816e-119
4.4608964e-118
1.5825077e-118
1.88525e-119
1.8303885e-119
7.3551582e-120
7.853211e-120
8.173492e-125
5.4168615e-124
1.4656036e-123
7.5486339e-124
2.7155674e-122
4.9042941e-121
7.8375703e-120
9.3039546e-120
2.6882705e-118
2.357025e-119
1.1480878e-120
9.1615052e-120
4.3766174e-119
5.7108448e-120
3.3191111e-119
1.4289765e-119
3.0711342e-120
2.30113e-120
9.8207175e-121
2.2945737e-120
3.7374905e-126
0
2.100013e-125
5.8948159e-125
1.7232217e-123
3.902662e-122
5.9681415e-121
5.1920349e-121
1.3321635e-119
8.71627e-121
7.7670146e-122
5.0534008e-121
4.0766002e-120
5.1593136e-121
2.1316064e-120
1.1467962e-120
5.4970569e-121
2.5764559e-121
1.6817872e-121
1.1072231e-120
2.2893729e-126
3.9423764e-126
1.5705744e-126
4.7975966e-126
1.0935308e-124
2.258868e-123
3.2447241e-122
2.273344e-122
5.7461467e-121
3.9404962e-122
1.3564938e-122
2.7576524e-122
5.6350334e-121
3.7455128e-122
1.3847883e-121
8.6120795e-122
7.2068077e-122
2.7296611e-122
6.2018393e-122
7.6968157e-121
4.5025702e-127
1.0296855e-126
3.7009358e-127
3.4400941e-126
4.1854333e-125
1.1186163e-124
1.4599624e-123
1.5622346e-123
2.6856244e-122
1.124346e-122
1.0255393e-122
3.8141559e-123
6.268751e-122
4.8404315e-123
1.282566e-122
2.6918125e-122
8.7155357e-123
4.5422811e-123
3.8031822e-122
5.0706668e-121
2.4155002e-128
8.0993244e-128
6.3606048e-128
2.0887393e-126
4.9444304e-125
6.7250982e-126
6.1691999e-125
4.0285742e-124
1.2038279e-122
2.8891058e-123
4.9564117e-123
3.0095993e-123
9.0393285e-123
5.2787728e-124
1.5538994e-123
9.7000762e-123
1.6071948e-123
1.5085476e-123
2.0107306e-122
2.4124296e-121
3.9280155e-128
3.4880391e-129
9.6393524e-129
3.405011e-127
1.0877909e-125
2.1033362e-125
5.3817548e-126
7.3189582e-125
2.1984785e-123
3.7413348e-124
9.9666616e-124
8.232472e-124
1.9588824e-123
7.4931637e-125
2.8603982e-124
2.0047578e-123
2.5390159e-124
5.3550471e-124
8.1249462e-123
8.5156474e-122
3.6834894e-128
2.8326674e-127
6.4414348e-126
3.8709487e-126
5.084383e-126
7.6515136e-126
2.5454868e-125
7.400097e-126
2.6447309e-124
2.8655549e-125
6.20714e-125
1.1961429e-124
3.0056339e-124
8.2042374e-126
4.1780272e-125
2.6913068e-124
3.8892603e-125
1.7516195e-124
2.6723862e-123
2.4292031e-122
5.3433322e-129
9.2619729e-128
3.7497629e-126
4.8333739e-126
2.9317223e-124
2.0435737e-126
2.4758546e-125
1.3213081e-124
1.0401453e-124
1.9084198e-126
1.548831e-125
1.1027484e-124
6.0177237e-125
2.2898161e-124
8.8361563e-126
2.0195929e-125
7.1831462e-126
9.173505e-125
5.8485219e-124
6.3288469e-123
1.1337561e-128
2.7984659e-127
1.288605e-125
7.0580647e-125
4.6449193e-124
8.1579596e-126
8.3285611e-125
4.146403e-125
3.4810259e-125
4.1969833e-124
3.0695141e-126
2.0845311e-125
2.4200292e-125
2.6772482e-124
3.3809271e-126
1.7673556e-125
5.2610132e-124
2.78636e-125
1.2940017e-124
1.306802e-123
1.7380368e-129
4.9722705e-128
3.2478914e-126
5.472726e-125
1.7361868e-123
1.6501321e-123
1.8102328e-125
1.5595047e-125
1.2169739e-125
1.7781247e-124
1.269194e-124
1.7142052e-126
1.1165056e-125
2.796129e-124
1.105119e-126
4.9429753e-126
1.9256118e-124
4.5085929e-126
1.9601543e-125
2.0967047e-124
1.7301688e-130
4.4180194e-129
2.3423987e-127
6.2988118e-126
2.4627612e-124
2.5456815e-124
1.9493668e-126
4.0543441e-126
5.7209408e-125
2.2277882e-125
4.7943854e-125
1.3261657e-127
1.9868536e-126
5.7770594e-125
4.8588328e-127
6.112409e-127
2.2516205e-125
5.4764926e-127
2.7373062e-126
3.4957611e-125
2.468907e-131
3.5015578e-130
1.0379456e-128
3.1809077e-127
1.3548304e-125
1.9086028e-125
1.157056e-127
4.4477632e-127
9.7731037e-126
1.714015e-126
7.3432968e-126
1.4936888e-126
2.109156e-127
6.321132e-126
2.3872353e-127
5.4693997e-128
2.1163224e-126
1.355641e-127
4.7537262e-127
4.1967331e-126
2.3459751e-131
5.2641739e-131
7.0774651e-130
1.4542498e-128
3.2530738e-127
9.072814e-127
8.0133494e-129
8.6075602e-128
7.6752223e-127
9.9361253e-128
7.4201786e-127
3.9671539e-127
2.3646596e-128
5.6197745e-127
1.0848618e-127
1.0122733e-128
1.6153917e-127
3.4712662e-128
4.7793893e-128
4.5390596e-127
7.5333444e-132
1.2676579e-131
1.2834762e-130
9.7096887e-130
1.4004916e-128
3.2878809e-128
6.9992502e-130
9.8042942e-129
4.448336e-128
5.3866357e-128
1.5342328e-127
5.663499e-128
3.2653474e-129
5.1772166e-128
2.8655838e-128
6.0765179e-129
1.0429407e-128
7.6108809e-129
4.1387588e-129
4.3452226e-128
9.9091793e-132
8.5842231e-132
1.4411014e-131
1.7387953e-130
2.3742873e-129
3.576839e-129
1.1763476e-129
6.7931174e-129
2.4283965e-128
1.8647216e-128
5.6047745e-128
7.0649724e-129
3.7002625e-130
3.7638182e-129
4.6825469e-129
2.0331927e-129
2.4369151e-129
2.8237104e-129
4.3921235e-130
3.8758752e-129
4.9948558e-132
4.7753344e-132
2.289871e-132
1.9620615e-131
3.6645486e-130
9.4096449e-130
2.9530355e-129
4.7091819e-129
2.4426022e-128
5.6825354e-129
1.5238135e-128
2.2389611e-129
1.3545806e-129
1.6191651e-129
1.1918404e-129
3.0116532e-130
3.781634e-130
5.4832306e-130
2.2289121e-130
3.1508207e-130
3.0608912e-132
1.1174204e-131
1.0895573e-130
2.8234989e-130
5.5949943e-130
9.5340513e-131
3.2965894e-130
9.5884056e-130
3.142487e-128
7.9095763e-129
3.3079233e-129
1.4720034e-129
2.5939291e-129
3.2864946e-129
1.5135784e-129
3.7022306e-130
3.0224265e-131
6.3032292e-131
4.459442e-131
2.1328502e-131
2.0208441e-132
8.0694751e-132
5.9258962e-131
1.5130862e-130
1.4177213e-129
2.2165645e-129
2.3641703e-131
8.4130633e-130
1.1020107e-128
2.8872634e-129
4.2114454e-130
1.6188556e-129
1.5705373e-129
2.6699454e-129
1.5029142e-129
9.6254493e-130
1.3479112e-130
3.397628e-131
2.1251448e-130
1.0746204e-130
1.2628617e-113
2.1721676e-111
2.2871462e-110
3.7380303e-110
2.4451309e-110
1.1401112e-111
0
5.1624559e-109
8.0285567e-109
0
1.6236299e-109
1.1539126e-107
9.9303384e-108
2.0897308e-108
4.2304175e-109
1.584986e-108
1.4048982e-108
1.2657287e-109
5.3849764e-110
2.8309597e-112
4.9609563e-114
1.6270733e-112
2.2784835e-111
7.4032902e-111
4.8161481e-111
6.2491026e-112
1.0872947e-111
3.2211028e-110
5.6456796e-110
1.4659279e-111
4.0364885e-110
3.9540651e-108
3.1820365e-108
7.8549832e-109
2.0972058e-109
4.2995859e-109
3.4352278e-109
3.879362e-110
1.11188e-110
2.7538433e-112
2.3382942e-114
1.1970161e-113
1.1316415e-112
3.8010746e-112
2.8484578e-112
1.587091e-112
4.7602398e-112
2.1783632e-110
3.0356388e-111
2.1739835e-112
3.8833413e-111
6.9199442e-109
4.4669718e-109
1.0975335e-109
3.5473329e-110
1.0289955e-109
7.0554985e-110
5.2215696e-111
1.5139688e-111
5.9869238e-113
4.8358478e-115
1.8949679e-114
6.8585414e-114
2.5719345e-113
1.9858438e-113
4.0928841e-113
6.5021595e-114
3.4621706e-112
1.5626297e-112
2.3228369e-113
1.8087645e-112
8.6549228e-110
5.3214832e-110
1.2344104e-110
1.6737604e-110
3.0562097e-110
1.2571541e-110
1.7118877e-111
3.20828e-112
2.4181899e-113
4.0742568e-116
1.5916089e-115
2.4889429e-115
9.553008e-115
1.0880622e-112
2.7136154e-112
5.6244307e-114
2.8409456e-113
5.0210258e-112
5.1556036e-113
1.0809332e-112
5.6262523e-111
2.1602814e-111
1.4468086e-111
1.7798167e-111
9.857764e-111
2.3229561e-111
3.9454578e-112
7.7307259e-113
1.2355917e-113
3.6813932e-116
2.946403e-116
6.7364853e-115
5.8088323e-115
5.3781098e-113
3.1788039e-113
1.6524339e-112
1.2234908e-112
6.887071e-112
1.2378011e-114
9.0393946e-113
2.6347993e-112
1.6238414e-111
8.5315403e-112
8.1683794e-112
1.8921359e-111
4.7218448e-112
8.4353505e-113
2.7054225e-113
1.1709142e-113
8.4834598e-117
2.8721763e-117
0
2.0962129e-115
2.0782246e-113
1.328194e-112
2.037636e-112
2.9876741e-111
4.9896724e-113
0
1.5716549e-112
1.9251517e-112
8.590373e-113
1.3037548e-112
3.1573337e-112
2.7803517e-112
6.6874768e-113
2.4308678e-113
1.1933145e-113
8.0468501e-114
3.8252863e-118
2.0236603e-116
0
2.5784731e-114
1.9164258e-114
7.6619457e-114
9.9022355e-112
1.4853746e-112
2.2954774e-114
9.4740382e-116
4.0726115e-113
1.6743456e-113
1.4970018e-113
1.1002338e-112
1.5129586e-112
3.5632417e-113
1.0102177e-113
1.0209119e-113
4.7441846e-114
3.3617045e-114
4.0950098e-119
4.385453e-118
2.5193202e-117
4.1488983e-116
9.3977143e-114
1.0611685e-115
2.8840338e-113
1.4909847e-113
2.180306e-115
0
2.0874752e-114
8.4301194e-116
7.4923391e-114
1.1635458e-113
4.7903867e-113
4.2524477e-114
1.8070309e-114
4.2940307e-114
1.1144719e-114
1.0504694e-114
1.0194936e-119
6.8541034e-120
9.3811125e-119
4.9712512e-118
1.4898247e-115
3.8928741e-116
7.4303439e-115
2.6631497e-114
3.7237028e-116
8.8140387e-117
8.9926235e-116
1.3505772e-117
1.6474341e-114
9.8159974e-115
1.0769666e-113
4.3350786e-115
3.4810898e-115
1.2415277e-114
1.8172305e-115
2.8377742e-115
3.2662117e-120
3.6633688e-120
0
2.1600521e-121
1.9768378e-117
4.7821317e-117
2.7806123e-116
2.896609e-115
4.0427356e-117
6.9275789e-118
7.9382939e-118
1.4123992e-116
4.4259587e-115
1.2427589e-115
1.3333088e-114
2.6724329e-116
6.2421994e-116
2.3684254e-115
3.5936812e-116
5.2174152e-116
9.1127142e-122
1.9497393e-121
0
1.447707e-120
4.1425526e-119
1.5836741e-118
1.2679839e-117
2.0700172e-116
3.0807963e-118
5.7649414e-119
8.4861403e-118
4.6545036e-117
7.8758159e-116
1.4131796e-116
1.7095771e-115
2.5809523e-117
6.906589e-117
2.9361603e-116
4.2897856e-117
1.5495414e-116
1.9789012e-123
4.3732945e-123
1.9342048e-122
9.4674775e-122
2.9323603e-120
4.0022942e-119
1.0457263e-118
8.0183313e-118
1.7846848e-119
9.2385958e-120
1.9279679e-118
8.995661e-118
1.609238e-116
1.4644885e-117
1.0978039e-116
1.8546734e-118
7.1179932e-118
2.8775987e-117
5.9122112e-118
5.9294914e-117
5.9013729e-125
1.2742915e-124
7.5114801e-124
7.2450538e-123
2.4279498e-121
3.7208969e-120
7.22689e-120
5.144805e-119
8.8339784e-121
8.1724743e-121
1.6657868e-119
8.5957584e-119
1.9352244e-117
1.114082e-118
7.7476466e-118
1.2880371e-119
6.5197487e-119
2.9048313e-118
1.6292803e-118
2.3487922e-117
2.7712065e-125
1.9194759e-125
1.1238469e-125
3.187144e-124
1.141895e-122
2.201349e-121
4.1304828e-121
2.1409029e-120
4.6875788e-122
6.5873403e-122
9.5734883e-121
9.9554506e-120
2.2671392e-118
7.2116031e-120
5.6914863e-119
9.8874256e-121
6.2950872e-120
3.0047062e-119
8.7506828e-119
1.2691514e-117
3.5476511e-126
3.0135907e-126
9.8612982e-126
3.8126775e-125
6.9745922e-124
1.0651949e-122
2.0104732e-122
6.9304314e-122
2.0949153e-122
4.1344188e-122
9.0353288e-122
1.0205839e-120
2.5810504e-119
7.8823969e-121
4.5727541e-120
9.5302121e-122
7.2769557e-121
5.6952513e-120
5.3575248e-119
6.9254073e-118
1.8976486e-127
3.0029756e-127
8.2596401e-126
2.0062851e-125
1.1780136e-124
5.4020688e-124
7.0586265e-124
1.9064043e-123
4.0392521e-123
8.17025e-123
5.3684159e-123
5.2923063e-122
1.2333883e-120
7.779882e-122
5.4159378e-121
1.6000983e-122
1.4231153e-121
1.9724982e-120
2.7755473e-119
3.0479493e-118
7.5350246e-129
2.4253039e-128
1.025937e-126
4.6958594e-126
1.274549e-124
4.5049151e-125
3.4044072e-125
5.1281162e-125
5.8957999e-124
1.0155015e-123
2.1988437e-124
4.3100716e-123
9.9516275e-122
7.2467863e-123
5.0927826e-122
3.0678478e-123
4.0522812e-122
7.0273439e-121
1.1027517e-119
1.0243565e-118
9.1604453e-128
1.5783073e-128
2.9683634e-127
5.9675697e-126
1.4828873e-124
1.2114371e-125
2.6377832e-126
2.6851833e-126
5.9429587e-125
1.0437062e-124
1.7039944e-125
2.9598307e-124
7.3062222e-123
6.3591952e-124
3.1531165e-123
6.0239936e-124
1.1603102e-122
2.3770878e-121
3.55144e-120
3.1520588e-119
7.9736343e-128
3.5635208e-128
8.2593577e-127
2.2103895e-126
2.7621841e-125
4.9532711e-125
2.8018478e-123
1.2452425e-124
5.9059122e-126
7.8865676e-125
2.5652335e-123
4.7290191e-125
1.2525814e-123
1.0216456e-123
1.7162495e-124
1.4104882e-124
2.9607013e-123
5.0113216e-122
8.3034902e-121
7.8438016e-120
1.5660947e-128
1.5342387e-127
1.0611424e-125
3.768243e-125
4.0024019e-124
3.6483142e-124
4.8265841e-124
2.3722626e-125
8.2422632e-126
1.9680974e-125
6.0362237e-124
1.4655494e-125
2.3585433e-124
2.7860425e-124
1.2358514e-125
2.4169848e-125
6.5445099e-124
8.3346828e-123
1.5341997e-121
1.3989261e-120
1.0723571e-129
2.0249307e-128
1.4873898e-126
5.9096839e-126
1.0130425e-124
1.103873e-124
2.9859801e-124
2.3118546e-124
6.1647615e-124
3.0953706e-125
6.5739011e-125
1.8739164e-126
1.5230231e-125
3.5266619e-125
2.2341683e-126
4.0254257e-126
9.2700212e-125
1.220804e-123
2.3833459e-122
2.7458122e-121
5.8074923e-131
1.3363114e-129
9.0650753e-128
5.7181438e-127
1.3343313e-125
1.8939328e-125
1.2462872e-124
4.6209622e-124
8.1511749e-124
1.2402725e-125
2.6379688e-125
4.1010689e-126
1.9420381e-126
5.4419458e-126
1.9520092e-126
2.8451031e-126
2.057867e-125
2.4067995e-124
4.3536202e-123
3.6731794e-122
1.8168588e-131
1.1551182e-130
4.4638686e-129
5.1904786e-128
9.0818249e-127
1.662896e-126
1.4486837e-125
6.1022443e-125
1.3204554e-124
1.8489415e-126
6.752381e-126
3.6149873e-126
1.30805e-126
1.3633214e-126
6.170118e-127
1.633139e-126
4.2252935e-126
3.0231382e-125
5.4453668e-124
5.1239659e-123
2.4733269e-131
5.9368268e-131
1.0945372e-129
1.5696938e-128
1.4469996e-127
2.3309225e-127
1.4286827e-126
5.2661998e-126
1.2029742e-125
3.3745733e-127
1.4627049e-126
1.426755e-126
5.2507672e-127
3.2668096e-127
2.2010682e-127
6.2540855e-127
7.2342939e-127
3.075628e-126
6.6662655e-125
6.2149098e-124
2.2677366e-132
1.8497609e-131
2.6233085e-130
4.8873038e-129
4.2656409e-128
4.4481086e-128
8.7680983e-128
3.248915e-127
7.5041424e-127
5.9124467e-128
2.5189924e-127
2.2458161e-127
2.8396815e-127
2.7509688e-127
1.1945771e-127
1.8833116e-127
1.8652788e-127
2.7854536e-127
4.9628524e-126
5.6685519e-125
5.4057034e-133
2.9582321e-132
1.2361364e-130
1.0388378e-129
6.1559248e-129
1.2917178e-128
9.7666466e-129
2.3821836e-128
6.1754078e-128
5.4073532e-128
3.4948861e-128
1.9339902e-128
3.1026195e-128
5.1568017e-128
4.1018597e-128
5.446414e-128
4.0289046e-128
3.287535e-128
3.0596155e-127
4.7380966e-126
2.8716225e-132
1.8628649e-131
8.2598267e-131
5.1683674e-131
3.4157751e-130
4.0935483e-129
3.7730415e-128
4.3180057e-129
1.2702361e-128
2.8777084e-128
1.8754853e-128
3.0966133e-128
3.3432547e-128
9.5217465e-129
1.2853116e-128
8.9684943e-129
1.4524035e-128
3.6025136e-128
2.014595e-128
3.6086211e-127
8.4282295e-131
4.3468886e-131
1.0105765e-130
1.7016537e-130
1.7415318e-130
6.1035562e-129
5.4638234e-128
1.4943363e-129
4.8345741e-129
1.0738254e-128
3.5918779e-128
1.0662157e-127
1.5184655e-127
1.1925645e-128
6.1716305e-129
3.5934849e-129
7.0223663e-129
7.937805e-129
1.3972913e-129
2.6160156e-128
8.8450951e-132
1.3047932e-131
5.4726429e-131
1.2362631e-130
1.2215416e-129
2.8208864e-129
1.7094778e-128
2.3915228e-129
4.7907243e-129
7.9729227e-129
3.7670314e-128
8.227204e-128
8.859573e-128
3.7592295e-129
1.7412886e-129
2.9441351e-129
1.7261664e-129
9.4958733e-129
2.577353e-128
2.3151559e-129
2.7787461e-110
1.0696643e-109
1.9163965e-108
2.9940826e-108
4.5818001e-108
2.8826804e-108
1.0699006e-108
2.6819878e-108
1.8974307e-108
5.6188886e-109
3.1319417e-108
6.6936136e-107
1.0007552e-106
2.1684847e-107
0
1.0222971e-108
1.7942334e-109
0
0
0
3.8300187e-112
3.3306179e-111
9.514548e-110
3.0538448e-109
4.4529336e-109
1.8322321e-109
2.2249755e-110
1.7235468e-109
1.1028793e-109
2.1369457e-110
1.0270841e-109
1.8919884e-107
2.8616525e-107
5.2642367e-108
5.2295428e-109
8.7430299e-110
8.3323511e-109
4.4224088e-110
3.4070457e-112
1.2151433e-111
1.929071e-112
2.1131733e-112
5.1035473e-111
2.9716021e-110
4.1915783e-110
3.7455825e-110
1.6159908e-110
1.249928e-110
6.0732991e-111
1.4431151e-111
7.6051096e-111
2.1171334e-108
2.8787076e-108
8.2124133e-109
1.0366541e-109
1.3196264e-110
2.1657337e-109
1.1500661e-110
1.6470443e-112
6.1591594e-112
4.7825944e-113
1.1923881e-113
1.2896983e-112
1.0746609e-111
7.7718648e-112
1.3872417e-111
8.615391e-112
8.8894032e-112
3.1945212e-112
1.4087258e-111
0
2.1810842e-109
3.1278178e-109
1.0517001e-109
1.3931921e-110
4.5682264e-111
9.1046896e-111
2.8728911e-111
2.1203152e-111
4.3987077e-112
4.5469974e-114
7.3659605e-115
1.4446228e-114
1.5054515e-111
6.906e-111
1.1570741e-113
1.3643544e-112
6.9170723e-112
5.423508e-112
2.919415e-112
9.8115653e-112
2.1021442e-110
2.1936692e-110
9.4246749e-111
1.6619807e-111
7.3857118e-111
2.1619455e-111
1.8626088e-111
8.8285934e-111
7.2171937e-111
3.2246192e-115
1.2844672e-113
0
3.3655012e-112
1.1804802e-112
1.3968129e-110
3.7258157e-111
5.521872e-111
9.556091e-114
3.1622972e-113
5.9835764e-113
1.4342508e-111
0
8.454634e-112
3.179823e-112
3.3916943e-111
6.8085625e-111
3.3837952e-110
1.2103142e-110
1.1085221e-110
3.4680178e-117
6.1666237e-117
2.8437987e-114
6.9092527e-112
3.6966859e-111
1.5031278e-111
1.2191225e-111
4.8053296e-111
1.4981987e-112
1.1335561e-110
1.1484155e-110
5.0428053e-110
0
1.3989282e-111
3.2865075e-112
2.3917266e-111
9.6942415e-111
5.0797848e-110
9.3126215e-111
7.6969542e-111
8.3584825e-118
8.1723282e-115
2.5436118e-113
2.1863755e-112
1.4268099e-112
1.817893e-112
4.9960236e-111
6.8856217e-112
2.539403e-113
6.7532024e-112
1.9202626e-111
7.6952569e-111
1.6829744e-112
2.946855e-112
1.4876683e-112
1.2019169e-111
6.1873575e-111
3.6123155e-110
4.7881712e-111
3.3360923e-111
3.4486321e-119
1.9136573e-116
4.388061e-115
3.3118062e-114
4.7813375e-115
3.6295347e-114
9.5036707e-112
1.3661754e-112
4.5853668e-115
2.2972396e-113
1.7063891e-112
1.8320492e-111
3.6652993e-111
6.0584407e-113
4.923192e-113
4.366761e-112
2.5866358e-111
1.7020468e-110
1.5074343e-111
1.0485887e-111
3.6913413e-120
2.0631576e-120
1.694094e-117
7.5764222e-116
9.9003172e-115
8.1757988e-114
1.8274564e-112
2.045061e-113
3.9134062e-116
1.9775735e-114
2.4798104e-113
1.6656217e-112