/*--------------------------------*- C++ -*----------------------------------*\
| =========                 |                                                 |
| \\      /  F ield         | OpenFOAM: The Open Source CFD Toolbox           |
|  \\    /   O peration     | Version:  1.7.x                                 |
|   \\  /    A nd           | Web:      www.OpenFOAM.com                      |
|    \\/     M anipulation  |                                                 |
\*---------------------------------------------------------------------------*/
FoamFile
{
    version     2.0;
    format      ascii;
    class       volScalarField;
    location    "0.0045";
    object      k;
}
// * * * * * * * * * * * * * * * * * * * * * * * * * * * * * * * * * * * * * //

dimensions      [0 2 -2 0 0 0 0];

internalField   nonuniform List<scalar> 
206988
(
0.30738747
0.071091633
0.016498613
0.0028236527
0.00037624932
7.5707864e-05
4.3601229e-05
4.0622536e-05
4.0254563e-05
4.0672141e-05
4.0412751e-05
4.114137e-05
4.1419365e-05
4.2057394e-05
4.2437508e-05
4.2797223e-05
4.460488e-05
0.00023876577
0.0053052431
0.17793918
0.21536832
0.045223247
0.0073476468
0.0010758742
0.00015429436
5.0333271e-05
3.9883977e-05
3.9982416e-05
3.9623218e-05
4.0371467e-05
3.9844496e-05
4.0977357e-05
4.0840954e-05
4.177444e-05
4.1715852e-05
4.2455238e-05
4.2258554e-05
0.00016884081
0.015196681
0.1856071
0.14559588
0.022589022
0.002757161
0.00033528008
6.7698697e-05
4.0607401e-05
3.8164377e-05
3.8788684e-05
3.8544797e-05
3.9719021e-05
3.891636e-05
4.0398589e-05
3.999347e-05
4.0961073e-05
4.0959135e-05
4.1432833e-05
4.1159164e-05
9.2820227e-05
0.0083804395
0.18382959
0.1033281
0.0098901827
0.00093481869
0.0001132024
4.4743937e-05
3.9068167e-05
3.8067109e-05
3.8840123e-05
3.7563133e-05
3.9745343e-05
3.6951699e-05
4.0125102e-05
3.7516008e-05
4.0807885e-05
3.933394e-05
4.097174e-05
3.9947884e-05
9.6156639e-05
0.0087753598
0.17493908
0.079631294
0.0046363426
0.00028899827
5.4618694e-05
3.881669e-05
3.7979839e-05
3.7499022e-05
3.8382542e-05
3.6937013e-05
3.9185038e-05
3.5697857e-05
3.9786873e-05
3.6954318e-05
3.9952876e-05
3.7280256e-05
4.0623813e-05
3.8479992e-05
6.4522021e-05
0.0081393048
0.1690494
0.066134388
0.0025204089
0.00010698562
3.9864049e-05
3.7137191e-05
3.713264e-05
3.7372598e-05
3.7470209e-05
3.7226271e-05
3.8364724e-05
3.7247815e-05
3.9357369e-05
3.7067784e-05
3.7958578e-05
3.8052083e-05
3.8717628e-05
4.0735348e-05
0.00014788138
0.007068432
0.15929649
0.057445854
0.0020184139
7.1008381e-05
3.8205929e-05
3.7361388e-05
3.7331787e-05
3.745533e-05
3.7672421e-05
3.7112316e-05
3.818325e-05
3.6682866e-05
3.755857e-05
3.8022308e-05
3.8254463e-05
3.7831935e-05
3.7756164e-05
3.9838983e-05
0.00010296642
0.0066600033
0.14563747
0.049228535
0.0014677769
5.5466931e-05
3.6730205e-05
3.6878533e-05
3.6848955e-05
3.6633309e-05
3.7294834e-05
3.6200029e-05
3.737305e-05
3.6429281e-05
3.7651401e-05
3.6956819e-05
3.8194599e-05
3.7627458e-05
3.8014095e-05
4.223081e-05
0.00017779669
0.0078717187
0.1343022
0.043183172
0.0012763242
5.0469495e-05
3.6548872e-05
3.6738139e-05
3.6893085e-05
3.6567969e-05
3.6962925e-05
3.6377861e-05
3.7080599e-05
3.6364893e-05
3.7894734e-05
3.6879656e-05
3.7976172e-05
3.7145713e-05
3.8022612e-05
4.0121369e-05
0.00015024778
0.0056061468
0.1225287
0.038372487
0.0010731728
4.8476385e-05
3.7366909e-05
3.7279793e-05
3.7422277e-05
3.7081556e-05
3.7259731e-05
3.674359e-05
3.7279844e-05
3.6575619e-05
3.7862932e-05
3.6712677e-05
3.8010915e-05
3.7254959e-05
3.804288e-05
3.9066493e-05
0.00011654769
0.0046075245
0.10900138
0.03470305
0.00090709688
4.6441036e-05
3.793236e-05
3.7952473e-05
3.8137659e-05
3.7792999e-05
3.7786478e-05
3.7808351e-05
3.7759014e-05
3.6712765e-05
3.8305701e-05
3.6461595e-05
3.8093959e-05
3.7304528e-05
3.7997556e-05
3.8851929e-05
8.310783e-05
0.0032942907
0.095449829
0.031011617
0.00079884073
4.395924e-05
3.7531073e-05
3.7497969e-05
3.7618042e-05
3.7360529e-05
3.7627323e-05
3.7542297e-05
3.7888477e-05
3.7394596e-05
3.8082827e-05
3.6619841e-05
3.8088621e-05
3.7084522e-05
3.813636e-05
3.8581115e-05
0.00010428344
0.0030794704
0.085858619
0.028513503
0.00074695659
4.3103057e-05
3.739094e-05
3.741009e-05
3.7366406e-05
3.740905e-05
3.7603248e-05
3.7564342e-05
3.7778105e-05
3.7965867e-05
3.7584456e-05
3.7252006e-05
3.8429566e-05
3.7167306e-05
3.8513829e-05
3.8490749e-05
8.6930834e-05
0.0029633482
0.080396908
0.026093316
0.0007330776
4.4288955e-05
3.8109604e-05
3.8059881e-05
3.8022269e-05
3.8138727e-05
3.8001576e-05
3.8141613e-05
3.7967022e-05
3.8508261e-05
3.7995959e-05
3.7768645e-05
3.8253008e-05
3.7711303e-05
3.8760516e-05
4.0323926e-05
0.00012192874
0.002984932
0.07594183
0.023379533
0.00065563177
4.2933868e-05
3.7567387e-05
3.7503084e-05
3.7722528e-05
3.7391838e-05
3.7701566e-05
3.7812098e-05
3.7954444e-05
3.818365e-05
3.8606474e-05
3.7656702e-05
3.8149387e-05
3.7863053e-05
3.8744696e-05
3.9723112e-05
0.00011131799
0.0033444656
0.071099601
0.020987925
0.00060553313
4.2401232e-05
3.7285812e-05
3.7392634e-05
3.7487938e-05
3.7500665e-05
3.7474785e-05
3.8230408e-05
3.7674984e-05
3.8228312e-05
3.8110273e-05
3.7839835e-05
3.8432978e-05
3.8256231e-05
3.894838e-05
4.0201925e-05
0.00010770333
0.0028154862
0.066300207
0.01895401
0.000566762
4.3685553e-05
3.8187978e-05
3.8117127e-05
3.8280525e-05
3.8154244e-05
3.8241957e-05
3.8337796e-05
3.8241845e-05
3.8638941e-05
3.8082131e-05
3.8692563e-05
3.830277e-05
3.8654721e-05
3.8721957e-05
4.0061965e-05
0.00010674023
0.0028842062
0.061068486
0.016754858
0.0004844557
4.1763515e-05
3.7584401e-05
3.7686272e-05
3.7674668e-05
3.7588322e-05
3.7991909e-05
3.7808854e-05
3.7608134e-05
3.8553561e-05
3.7663924e-05
3.8722718e-05
3.8369591e-05
3.8669021e-05
3.8615444e-05
3.9613184e-05
8.6031302e-05
0.0025217616
0.056036564
0.015093433
0.00043593696
4.0997132e-05
3.7368014e-05
3.7490113e-05
3.7228971e-05
3.7484009e-05
3.7464211e-05
3.7722136e-05
3.7786641e-05
3.8226899e-05
3.8067545e-05
3.8261732e-05
3.873024e-05
3.847668e-05
3.8906964e-05
3.9886368e-05
9.1704878e-05
0.0022521894
0.051189949
0.013526345
0.00040902516
4.1396299e-05
3.7884147e-05
3.7737553e-05
3.7988327e-05
3.7647266e-05
3.7815257e-05
3.7439448e-05
3.779218e-05
3.769084e-05
3.8919114e-05
3.8226862e-05
3.87368e-05
3.8266137e-05
3.8790239e-05
3.9477689e-05
8.6582412e-05
0.0021975729
0.046200567
0.011958448
0.00037150006
4.1453925e-05
3.8005517e-05
3.7927896e-05
3.8037968e-05
3.8100066e-05
3.773825e-05
3.790676e-05
3.7829536e-05
3.8537576e-05
3.8442111e-05
3.8399087e-05
3.8421183e-05
3.8299222e-05
3.8541353e-05
3.9307345e-05
8.1263658e-05
0.0019387488
0.041229638
0.010482741
0.00032163312
3.9881793e-05
3.7069281e-05
3.7205038e-05
3.7170455e-05
3.7533616e-05
3.7000619e-05
3.7771795e-05
3.6997177e-05
3.8229775e-05
3.7296219e-05
3.8138011e-05
3.7819341e-05
3.8137452e-05
3.8364343e-05
3.9014362e-05
7.4698021e-05
0.0016157844
0.036295848
0.0092893699
0.0002889897
3.9219754e-05
3.6638439e-05
3.6745889e-05
3.6781349e-05
3.6802906e-05
3.6978483e-05
3.7476582e-05
3.6437174e-05
3.7534413e-05
3.7148731e-05
3.7606725e-05
3.7687822e-05
3.7836248e-05
3.8017311e-05
3.8657214e-05
7.0320499e-05
0.0014897297
0.031644614
0.0081134342
0.00026220857
3.9815023e-05
3.728391e-05
3.7336677e-05
3.7239577e-05
3.7459198e-05
3.6844279e-05
3.7755866e-05
3.6848833e-05
3.7671114e-05
3.7407959e-05
3.7716905e-05
3.7653219e-05
3.7849057e-05
3.7904158e-05
3.8511884e-05
6.5895054e-05
0.0012855786
0.027388405
0.0069516974
0.00022559993
3.8209096e-05
3.6310235e-05
3.6497886e-05
3.6302801e-05
3.6766748e-05
3.6187724e-05
3.6941696e-05
3.656374e-05
3.7217189e-05
3.698872e-05
3.7404108e-05
3.7217577e-05
3.7408219e-05
3.7505135e-05
3.8065692e-05
6.1618362e-05
0.0010915844
0.023531995
0.0059135049
0.00019866354
3.7732951e-05
3.591994e-05
3.6189288e-05
3.5950714e-05
3.6306228e-05
3.6031258e-05
3.6341471e-05
3.6141102e-05
3.6658349e-05
3.6461183e-05
3.6917854e-05
3.6726915e-05
3.7013485e-05
3.6979371e-05
3.7614566e-05
5.7513763e-05
0.00092460615
0.019834784
0.0049754023
0.00017255896
3.8298602e-05
3.6636058e-05
3.6804239e-05
3.6609613e-05
3.6892203e-05
3.6592189e-05
3.6887828e-05
3.6243205e-05
3.697084e-05
3.6692444e-05
3.7090906e-05
3.6890619e-05
3.7123727e-05
3.7062933e-05
3.754138e-05
5.5690432e-05
0.00082108426
0.017033059
0.0040281389
0.0001432241
3.6733932e-05
3.5658544e-05
3.5815467e-05
3.5708363e-05
3.6052551e-05
3.5822279e-05
3.6366064e-05
3.5456846e-05
3.6578558e-05
3.6171342e-05
3.6748891e-05
3.6566776e-05
3.6817493e-05
3.6746048e-05
3.7233744e-05
5.2327195e-05
0.00067682277
0.013674152
0.003344446
0.00012350003
3.6354027e-05
3.5431982e-05
3.5548302e-05
3.5431939e-05
3.5781956e-05
3.5492898e-05
3.6077146e-05
3.5416688e-05
3.628561e-05
3.6154296e-05
3.6443249e-05
3.6380648e-05
3.6556488e-05
3.647219e-05
3.6985611e-05
5.1153462e-05
0.00061024443
0.011639854
0.0024961064
0.00010556218
3.6780587e-05
3.5929234e-05
3.6119144e-05
3.5897519e-05
3.6396761e-05
3.5927496e-05
3.6666768e-05
3.5770982e-05
3.6799656e-05
3.6355227e-05
3.6819329e-05
3.6806772e-05
3.6776809e-05
3.6683514e-05
3.6822661e-05
4.4016781e-05
0.00042057793
0.010148437
0.23989427
0.031657083
0.0066486005
0.0010492361
0.00014193182
2.5216255e-05
1.448175e-05
1.2306362e-05
1.2916904e-05
1.2084286e-05
1.2425328e-05
1.2782705e-05
1.2918953e-05
1.3168488e-05
1.3613742e-05
1.4255866e-05
1.5137566e-05
0.00021812278
0.016320654
0.18134416
0.21379801
0.026939319
0.0028778536
0.00039786621
5.3432127e-05
1.5295144e-05
1.2366375e-05
1.1632481e-05
1.2372169e-05
1.140644e-05
1.2353888e-05
1.2302367e-05
1.2819273e-05
1.3059284e-05
1.2954708e-05
1.3747532e-05
1.3534856e-05
3.8733748e-05
0.0071251166
0.18213967
0.14839331
0.016280089
0.0012429269
0.00011956955
2.2072889e-05
1.25609e-05
1.2035496e-05
1.1698581e-05
1.1941536e-05
1.2164094e-05
1.2615174e-05
1.2469377e-05
1.3268132e-05
1.2831247e-05
1.3148033e-05
1.374971e-05
1.344142e-05
8.3875901e-05
0.0047472788
0.18217133
0.10495661
0.0071395038
0.00047098727
4.2272094e-05
1.4314469e-05
1.2745162e-05
1.1806984e-05
1.221798e-05
1.2051743e-05
1.1965706e-05
1.2277081e-05
1.2317436e-05
1.3227324e-05
1.2268975e-05
1.2962574e-05
1.3184628e-05
1.3880281e-05
3.2371731e-05
0.007484888
0.18051035
0.081875123
0.0034880085
0.00014694984
1.8472344e-05
1.1719277e-05
1.2133684e-05
1.1308193e-05
1.2951455e-05
1.1229365e-05
1.2533904e-05
1.1528382e-05
1.3249798e-05
1.1673208e-05
1.4214925e-05
1.2611819e-05
1.3336496e-05
1.3552873e-05
0.00027578633
0.0099128553
0.1754099
0.067639794
0.0020779936
5.4788856e-05
1.376612e-05
1.1958647e-05
1.1842921e-05
1.1609223e-05
1.2984606e-05
1.1433088e-05
1.2180854e-05
1.1284849e-05
1.3879369e-05
1.1179334e-05
1.2589842e-05
1.1836617e-05
1.3891503e-05
2.3886935e-05
0.00034935389
0.010142154
0.16075791
0.058189302
0.001556461
3.2362077e-05
1.2237799e-05
1.1757368e-05
1.1613712e-05
1.1599747e-05
1.2361713e-05
1.2018693e-05
1.335708e-05
1.15311e-05
1.2518222e-05
1.1944074e-05
1.3282329e-05
1.1589776e-05
1.2889951e-05
1.7053437e-05
0.00012652883
0.0054226908
0.14727821
0.050840371
0.00123559
2.4074866e-05
1.1271764e-05
1.1222647e-05
1.1196594e-05
1.1247543e-05
1.1759905e-05
1.1277856e-05
1.2086308e-05
1.1388274e-05
1.2159905e-05
1.1533868e-05
1.2496394e-05
1.1582192e-05
1.2395395e-05
1.3833633e-05
7.1434187e-05
0.0052865473
0.13549053
0.04462531
0.00097100824
2.0285036e-05
1.1612511e-05
1.1404364e-05
1.1530865e-05
1.1195235e-05
1.1455653e-05
1.1588263e-05
1.1461591e-05
1.1514613e-05
1.2089171e-05
1.1624952e-05
1.2400036e-05
1.1731143e-05
1.2478537e-05
1.3265248e-05
5.8279229e-05
0.0035196479
0.12405607
0.039932458
0.00087931178
1.9438152e-05
1.1453626e-05
1.1341195e-05
1.1519268e-05
1.1387e-05
1.1332282e-05
1.1282699e-05
1.1468505e-05
1.1376306e-05
1.2012027e-05
1.1526765e-05
1.1743482e-05
1.1817913e-05
1.2887051e-05
1.3640189e-05
6.0374704e-05
0.0032587229
0.11199111
0.035621648
0.00071865274
1.6844616e-05
1.1367944e-05
1.1236098e-05
1.1415691e-05
1.1554472e-05
1.1127895e-05
1.1398185e-05
1.1418848e-05
1.1164102e-05
1.193088e-05
1.1488416e-05
1.2051858e-05
1.1935071e-05
1.2132449e-05
1.3453697e-05
6.7394001e-05
0.0029490451
0.10004137
0.032229212
0.00066508319
1.6058171e-05
1.1082107e-05
1.104308e-05
1.1199024e-05
1.1259135e-05
1.1095861e-05
1.1317421e-05
1.1627857e-05
1.1136347e-05
1.2044492e-05
1.1493209e-05
1.1630498e-05
1.208494e-05
1.1892179e-05
1.3197857e-05
7.2604917e-05
0.0028466914
0.089751922
0.029131976
0.00055140522
1.5668379e-05
1.1373176e-05
1.1420188e-05
1.1331432e-05
1.1348273e-05
1.1396429e-05
1.1410681e-05
1.1763422e-05
1.116211e-05
1.1859424e-05
1.1439887e-05
1.1690601e-05
1.2130233e-05
1.2465399e-05
1.3046296e-05
6.1802361e-05
0.0022690687
0.083267226
0.026744914
0.00053033342
1.4893964e-05
1.1247082e-05
1.1407751e-05
1.1131428e-05
1.1483364e-05
1.1088937e-05
1.163893e-05
1.1833834e-05
1.1241964e-05
1.139066e-05
1.1591378e-05
1.1484574e-05
1.1774825e-05
1.225318e-05
1.3270981e-05
6.516834e-05
0.002743574
0.078811126
0.023962396
0.00048542369
1.4406729e-05
1.0940464e-05
1.098192e-05
1.0850702e-05
1.106827e-05
1.1218278e-05
1.1141864e-05
1.1700703e-05
1.0970369e-05
1.137292e-05
1.1609531e-05
1.1638147e-05
1.2035066e-05
1.1615129e-05
1.3111645e-05
5.3253116e-05
0.0023059934
0.073665828
0.021346996
0.00041687634
1.4661068e-05
1.1333358e-05
1.152834e-05
1.1310525e-05
1.1441874e-05
1.1364597e-05
1.1296385e-05
1.1323195e-05
1.1323063e-05
1.1053496e-05
1.1526673e-05
1.1405536e-05
1.1928567e-05
1.1528964e-05
1.3491602e-05
6.1521886e-05
0.0022504924
0.068883258
0.0192978
0.00039175131
1.4094936e-05
1.1131811e-05
1.1255791e-05
1.1065347e-05
1.1341437e-05
1.1142532e-05
1.1412857e-05
1.0886728e-05
1.1286899e-05
1.1337818e-05
1.1877034e-05
1.1763e-05
1.2173726e-05
1.1526153e-05
1.2814851e-05
5.0788942e-05
0.0021846542
0.063616303
0.017234719
0.00035051668
1.3477773e-05
1.0888677e-05
1.0870084e-05
1.1001209e-05
1.0896694e-05
1.120157e-05
1.1007898e-05
1.1052381e-05
1.1250829e-05
1.128419e-05
1.1621303e-05
1.1622288e-05
1.1992736e-05
1.1759302e-05
1.28628e-05
5.0641902e-05
0.0019880735
0.05820198
0.015405407
0.00031495196
1.3502124e-05
1.1074461e-05
1.109443e-05
1.1269621e-05
1.1275871e-05
1.1063317e-05
1.1217404e-05
1.0777172e-05
1.1376968e-05
1.0995721e-05
1.1557869e-05
1.1188887e-05
1.1784531e-05
1.1359849e-05
1.2858863e-05
4.2948309e-05
0.0016282871
0.053005188
0.013677223
0.0002877503
1.3146649e-05
1.0897182e-05
1.097636e-05
1.1115958e-05
1.0972773e-05
1.114445e-05
1.0887356e-05
1.1225661e-05
1.1115611e-05
1.1451523e-05
1.133946e-05
1.1735768e-05
1.1764762e-05
1.1493719e-05
1.2395859e-05
4.0811504e-05
0.001610416
0.047776181
0.012081819
0.00024843139
1.2787489e-05
1.0907363e-05
1.0838771e-05
1.1140167e-05
1.0859341e-05
1.0961419e-05
1.0977248e-05
1.0861549e-05
1.1233414e-05
1.0949283e-05
1.1380417e-05
1.1172224e-05
1.1599964e-05
1.1410678e-05
1.2378793e-05
3.991903e-05
0.0014498627
0.042403703
0.010729681
0.0002260759
1.262246e-05
1.0899549e-05
1.0849837e-05
1.1030102e-05
1.0867054e-05
1.093167e-05
1.0783944e-05
1.1138847e-05
1.127341e-05
1.1019756e-05
1.1546419e-05
1.1092783e-05
1.1711806e-05
1.1072536e-05
1.2261088e-05
3.3542708e-05
0.0012154229
0.037129907
0.0093787163
0.00019415414
1.2305309e-05
1.0904235e-05
1.0836828e-05
1.0875673e-05
1.0751481e-05
1.0828299e-05
1.1174689e-05
1.0681179e-05
1.1407471e-05
1.0914084e-05
1.1389061e-05
1.1094814e-05
1.1642805e-05
1.1023803e-05
1.2087502e-05
2.8478436e-05
0.00093071211
0.032356247
0.0082683934
0.00017527612
1.2230578e-05
1.0924454e-05
1.0885671e-05
1.096546e-05
1.0898875e-05
1.0829048e-05
1.1177184e-05
1.0791742e-05
1.140691e-05
1.0787915e-05
1.1461247e-05
1.0918004e-05
1.1619672e-05
1.0915835e-05
1.2020073e-05
2.5769386e-05
0.00083676427
0.027852681
0.0071690282
0.00015361247
1.1820018e-05
1.0645987e-05
1.0608847e-05
1.0692804e-05
1.0693531e-05
1.0590138e-05
1.0902715e-05
1.0644416e-05
1.1259648e-05
1.071805e-05
1.1361689e-05
1.0799329e-05
1.1478828e-05
1.0819622e-05
1.1828618e-05
2.5745077e-05
0.00075409724
0.023738893
0.0060551502
0.00013183271
1.1755635e-05
1.0778051e-05
1.0794709e-05
1.0732145e-05
1.0958897e-05
1.0765871e-05
1.1154157e-05
1.0715373e-05
1.1310896e-05
1.0731309e-05
1.1357277e-05
1.0740575e-05
1.1353554e-05
1.0750011e-05
1.1616849e-05
2.2754078e-05
0.00061459505
0.020034985
0.0051338888
0.00011190723
1.1531556e-05
1.0662513e-05
1.0660986e-05
1.0638535e-05
1.0803601e-05
1.0660612e-05
1.1034744e-05
1.0675667e-05
1.1199641e-05
1.0697171e-05
1.1233527e-05
1.0699465e-05
1.120709e-05
1.0709546e-05
1.1336494e-05
2.0678049e-05
0.00050948291
0.017169868
0.0042122775
9.3747749e-05
1.1312559e-05
1.0564016e-05
1.0569738e-05
1.0573505e-05
1.0682581e-05
1.0584619e-05
1.0861188e-05
1.0596365e-05
1.1026109e-05
1.067122e-05
1.1174304e-05
1.0695576e-05
1.1210075e-05
1.0708484e-05
1.1452519e-05
1.9439915e-05
0.0004285344
0.013762166
0.0034845315
7.7604734e-05
1.1218083e-05
1.062484e-05
1.0626733e-05
1.0621316e-05
1.0673463e-05
1.0617875e-05
1.0949941e-05
1.0624473e-05
1.1046307e-05
1.0666059e-05
1.1112353e-05
1.0688587e-05
1.1091982e-05
1.069009e-05
1.0965583e-05
1.7977152e-05
0.00037406404
0.011794285
0.0026335436
6.4905792e-05
1.1144822e-05
1.0602383e-05
1.0644658e-05
1.061805e-05
1.073356e-05
1.064169e-05
1.097921e-05
1.0696079e-05
1.1115135e-05
1.0735174e-05
1.1156109e-05
1.0765175e-05
1.1171821e-05
1.0743522e-05
1.1044446e-05
1.4273884e-05
0.00023433307
0.0098263502
0.2405745
0.025249539
0.0056689216
0.00092017846
0.00012536139
2.3404834e-05
1.1805213e-05
1.0665714e-05
1.0432277e-05
1.032215e-05
1.0414593e-05
1.0445128e-05
1.0441776e-05
1.0578832e-05
1.1036101e-05
1.1140661e-05
1.1566209e-05
0.00013729252
0.014781088
0.18132678
0.21355942
0.026334845
0.0028491421
0.00037893927
5.1747093e-05
1.4414844e-05
1.0568174e-05
1.0365827e-05
1.0369787e-05
1.0213976e-05
1.050764e-05
1.0396528e-05
1.0520286e-05
1.0817199e-05
1.0732919e-05
1.0748796e-05
1.1749824e-05
5.3959543e-05
0.0067659834
0.18189445
0.14905669
0.016438516
0.0012727323
0.0001230895
2.0775272e-05
1.1597848e-05
1.0532705e-05
1.0212688e-05
1.0206753e-05
1.0244051e-05
1.0424783e-05
1.038429e-05
1.0366328e-05
1.0759225e-05
1.0708862e-05
1.0839361e-05
1.3157226e-05
0.000202994
0.012865086
0.18308447
0.10538139
0.0073040752
0.00046907216
4.1312182e-05
1.2513947e-05
1.0868801e-05
1.068207e-05
1.0307742e-05
1.0439782e-05
1.0339272e-05
1.0304638e-05
1.0429012e-05
1.0458248e-05
1.0624647e-05
1.0757054e-05
1.0691877e-05
1.1033759e-05
2.734017e-05
0.0071196232
0.17967593
0.081537146
0.0033125029
0.00014890368
1.7411154e-05
1.0728111e-05
1.071011e-05
1.0598925e-05
1.0476524e-05
1.0303725e-05
1.053651e-05
1.0566938e-05
1.0410457e-05
1.0482432e-05
1.052849e-05
1.1000075e-05
1.0902845e-05
1.2213227e-05
6.847908e-05
0.0069050965
0.16980171
0.068664925
0.0020771433
5.2919869e-05
1.1906301e-05
1.038617e-05
1.0509495e-05
1.0638182e-05
1.0580951e-05
1.0505762e-05
1.0413345e-05
1.0555014e-05
1.0484808e-05
1.0467103e-05
1.0529964e-05
1.0606406e-05
1.0644635e-05
1.4804217e-05
0.0002115621
0.0098479952
0.16073329
0.059456261
0.0016090412
3.379812e-05
1.0681399e-05
1.0265914e-05
1.0282596e-05
1.0383239e-05
1.0407256e-05
1.031569e-05
1.0553033e-05
1.0348537e-05
1.0408084e-05
1.0327031e-05
1.0439201e-05
1.055157e-05
1.06127e-05
1.1682643e-05
7.0796223e-05
0.0057846389
0.15230041
0.052343408
0.0012273175
2.3826607e-05
1.0425138e-05
1.0268971e-05
1.0312833e-05
1.026219e-05
1.0418205e-05
1.0163551e-05
1.0445145e-05
1.0261536e-05
1.0374509e-05
1.045901e-05
1.0598111e-05
1.0390408e-05
1.0454339e-05
1.1512307e-05
6.874008e-05
0.0044124483
0.14012619
0.045734228
0.0010563113
2.018346e-05
1.0437817e-05
1.0355293e-05
1.029612e-05
1.0225399e-05
1.0373487e-05
1.0252746e-05
1.024931e-05
1.0170078e-05
1.0370381e-05
1.0443841e-05
1.0622652e-05
1.0373881e-05
1.0519691e-05
1.2017096e-05
5.2353149e-05
0.0035501272
0.12755905
0.040702016
0.00091520419
1.9386192e-05
1.0445869e-05
1.0436758e-05
1.0315033e-05
1.0354052e-05
1.0380127e-05
1.0248902e-05
1.0377908e-05
1.0231773e-05
1.0508647e-05
1.0590475e-05
1.0784503e-05
1.0842721e-05
1.0902801e-05
1.2241233e-05
7.4643367e-05
0.0032779941
0.11433808
0.036638223
0.0007226461
1.5950697e-05
1.0340415e-05
1.0419096e-05
1.0292791e-05
1.02562e-05
1.0415435e-05
1.023953e-05
1.0353527e-05
1.0324044e-05
1.0338833e-05
1.0503656e-05
1.073385e-05
1.0960331e-05
1.0973035e-05
1.1980936e-05
6.2718053e-05
0.0029141835
0.10147718
0.033336607
0.00066933193
1.5122568e-05
1.0343865e-05
1.0272504e-05
1.0217008e-05
1.0218747e-05
1.0245063e-05
1.0174339e-05
1.0277476e-05
1.0451753e-05
1.0435185e-05
1.0497171e-05
1.0438556e-05
1.069889e-05
1.0657818e-05
1.1816529e-05
6.7803564e-05
0.0028033267
0.091421265
0.030045053
0.00062273465
1.4896769e-05
1.0178446e-05
1.0278689e-05
1.0259717e-05
1.0260778e-05
1.026269e-05
1.021829e-05
1.0264604e-05
1.0424373e-05
1.0358463e-05
1.0566196e-05
1.0446346e-05
1.0780674e-05
1.0894917e-05
1.234411e-05
7.0624831e-05
0.0026772645
0.085257655
0.027325587
0.0005547741
1.4586354e-05
1.0198302e-05
1.0302233e-05
1.0270378e-05
1.0287477e-05
1.0296815e-05
1.0212349e-05
1.0181101e-05
1.0299264e-05
1.0399443e-05
1.0367791e-05
1.0547321e-05
1.0965803e-05
1.0555411e-05
1.2043704e-05
6.0431273e-05
0.0027969374
0.080026612
0.024849527
0.00050339311
1.3888506e-05
1.0145812e-05
1.0151089e-05
1.0152782e-05
1.0170038e-05
1.0242816e-05
1.0315325e-05
1.0191272e-05
1.028527e-05
1.0204506e-05
1.0437923e-05
1.0288942e-05
1.0748676e-05
1.0289016e-05
1.2569081e-05
5.6307951e-05
0.0022762008
0.07468421
0.022211442
0.00048400726
1.3833045e-05
1.0216753e-05
1.020489e-05
1.0184207e-05
1.0195179e-05
1.0158958e-05
1.0263991e-05
1.0214508e-05
1.0332158e-05
1.0243544e-05
1.0424618e-05
1.0218369e-05
1.0686659e-05
1.0284632e-05
1.2750904e-05
7.4287477e-05
0.0022667218
0.069874171
0.019771401
0.000431933
1.3764144e-05
1.0202121e-05
1.0263123e-05
1.0192998e-05
1.0174766e-05
1.0220814e-05
1.0244498e-05
1.014827e-05
1.0282987e-05
1.0194271e-05
1.0589332e-05
1.0563757e-05
1.077394e-05
1.0507432e-05
1.2054472e-05
6.0102405e-05
0.0024064374
0.064538009
0.017677546
0.00036016894
1.2903646e-05
1.0204435e-05
1.021507e-05
1.0160172e-05
1.0123741e-05
1.0163046e-05
1.014773e-05
1.0149973e-05
1.0363427e-05
1.0251517e-05
1.0553341e-05
1.0604894e-05
1.0669279e-05
1.0473561e-05
1.1442101e-05
4.870895e-05
0.0019529235
0.059023635
0.015909646
0.00033054154
1.2910829e-05
1.0242339e-05
1.0203386e-05
1.023517e-05
1.0156229e-05
1.0181677e-05
1.0245371e-05
1.018487e-05
1.0314189e-05
1.0169976e-05
1.0348098e-05
1.0249578e-05
1.056874e-05
1.0222118e-05
1.1342806e-05
4.4331524e-05
0.0016596761
0.053792624
0.014149601
0.00029812727
1.2668048e-05
1.0121552e-05
1.0142756e-05
1.0166463e-05
1.0154864e-05
1.0144435e-05
1.0154432e-05
1.014918e-05
1.0268067e-05
1.0116137e-05
1.0453442e-05
1.0257835e-05
1.0603929e-05
1.0186892e-05
1.1431588e-05
4.2514237e-05
0.00163684
0.048457093
0.012448163
0.00025370467
1.2196062e-05
1.0157898e-05
1.0135776e-05
1.014184e-05
1.0120177e-05
1.0149062e-05
1.01639e-05
1.0109474e-05
1.0292769e-05
1.0206721e-05
1.0284785e-05
1.0196731e-05
1.0382892e-05
1.0227796e-05
1.1225794e-05
4.0718746e-05
0.001389025
0.042957745
0.011162963
0.00023204844
1.1908926e-05
1.0135253e-05
1.0126719e-05
1.0114266e-05
1.014865e-05
1.0090887e-05
1.0183563e-05
1.0111149e-05
1.0294352e-05
1.0123233e-05
1.0318552e-05
1.0135225e-05
1.0461964e-05
1.0174586e-05
1.0968358e-05
3.2957112e-05
0.0012825745
0.037627462
0.0098115894
0.00021140577
1.1888167e-05
1.0120575e-05
1.0131012e-05
1.0092046e-05
1.0092945e-05
1.0087241e-05
1.0112114e-05
1.0081099e-05
1.0264247e-05
1.0093801e-05
1.0339382e-05
1.0186462e-05
1.0359691e-05
1.0405509e-05
1.0986462e-05
2.8177428e-05
0.00095505688
0.032749054
0.0085760794
0.00018119494
1.1697372e-05
1.0159512e-05
1.0149555e-05
1.0117214e-05
1.0145695e-05
1.0108529e-05
1.0137288e-05
1.0109347e-05
1.0225399e-05
1.0210621e-05
1.0343093e-05
1.0305087e-05
1.0424665e-05
1.0584e-05
1.0706865e-05
2.7023574e-05
0.0008998261
0.028276305
0.0074710988
0.00015875492
1.1388599e-05
1.0156291e-05
1.0176953e-05
1.0127771e-05
1.0132274e-05
1.0136945e-05
1.0105997e-05
1.0073798e-05
1.0195061e-05
1.0113722e-05
1.0379215e-05
1.0132756e-05
1.0255628e-05
1.0327104e-05
1.0789895e-05
2.3790217e-05
0.00075443241
0.024268246
0.0063806246
0.00014168185
1.1310944e-05
1.0084049e-05
1.0104815e-05
1.0080083e-05
1.0143683e-05
1.0096678e-05
1.0125417e-05
1.0114852e-05
1.0103875e-05
1.0080905e-05
1.0248392e-05
1.0156475e-05
1.0352556e-05
1.0131484e-05
1.0859825e-05
2.2696776e-05
0.00062535433
0.02046398
0.0054158345
0.00011813548
1.1086245e-05
1.016164e-05
1.0129083e-05
1.0090432e-05
1.0179215e-05
1.0131392e-05
1.0118826e-05
1.0072081e-05
1.0157944e-05
1.006828e-05
1.0176753e-05
1.0167296e-05
1.0288485e-05
1.0102542e-05
1.0562104e-05
2.1537666e-05
0.00054721224
0.017575432
0.0044815679
9.7349399e-05
1.0988769e-05
1.0110523e-05
1.0095085e-05
1.0086428e-05
1.0112621e-05
1.0083037e-05
1.0174745e-05
1.0130073e-05
1.0239068e-05
1.0089169e-05
1.0188615e-05
1.0118149e-05
1.0337712e-05
1.0098506e-05
1.0505267e-05
1.9367533e-05
0.00045337871
0.014161485
0.0037587201
8.2119212e-05
1.0783753e-05
1.0095128e-05
1.0117085e-05
1.0114301e-05
1.0125139e-05
1.0132413e-05
1.0161244e-05
1.0109821e-05
1.0160502e-05
1.0078597e-05
1.0166152e-05
1.0087062e-05
1.0234883e-05
1.0080911e-05
1.0420273e-05
1.8127058e-05
0.00039510389
0.012091658
0.0028827433
6.9538343e-05
1.077705e-05
1.0099431e-05
1.0094924e-05
1.0073488e-05
1.0109676e-05
1.0088497e-05
1.0114042e-05
1.0081693e-05
1.0173899e-05
1.0102724e-05
1.0243021e-05
1.0124483e-05
1.0269827e-05
1.0124103e-05
1.0430233e-05
1.4093325e-05
0.00025022744
0.010802226
0.24193002
0.024622489
0.0059617712
0.00096645587
0.00013350559
2.3262253e-05
1.1482502e-05
1.0389315e-05
1.0264846e-05
1.0273904e-05
1.0300652e-05
1.0300425e-05
1.0367852e-05
1.0567316e-05
1.0644036e-05
1.0972858e-05
3.3067261e-06
0.00084042531
0.016301344
0.18053854
0.2155166
0.024471446
0.0025471247
0.00034723697
4.8537406e-05
1.3820545e-05
1.0557671e-05
1.0214741e-05
1.0200228e-05
1.0170539e-05
1.0330284e-05
1.032056e-05
1.0287183e-05
1.0375221e-05
1.065867e-05
1.0881849e-05
6.4065032e-07
0.00049386546
0.010652085
0.18590457
0.15105294
0.015193944
0.0011471449
0.00011242864
1.9832619e-05
1.1057954e-05
1.0370189e-05
1.0329901e-05
1.0279453e-05
1.0132473e-05
1.0229286e-05
1.0265288e-05
1.0228371e-05
1.0360647e-05
1.0531803e-05
1.0470106e-05
8.5461796e-06
0.0002931812
0.0092465593
0.18419887
0.10676418
0.0074939946
0.00040890183
3.6713452e-05
1.2359976e-05
1.0613682e-05
1.0244103e-05
1.033906e-05
1.0303377e-05
1.0157183e-05
1.0121959e-05
1.0168811e-05
1.0424889e-05
1.034849e-05
1.0459819e-05
1.0572273e-05
9.1127465e-06
0.0001315942
0.0074433764
0.18467566
0.083075918
0.0038243114
0.00015859361
1.6506544e-05
1.0561169e-05
1.0266182e-05
1.0339858e-05
1.0440249e-05
1.0195011e-05
1.0295599e-05
1.0116657e-05
1.034892e-05
1.0268488e-05
1.0521953e-05
1.0705277e-05
1.0607167e-05
1.2021448e-05
0.00022889971
0.010756385
0.17512511
0.068890494
0.0021636422
6.0657887e-05
1.1764053e-05
1.0481762e-05
1.0289812e-05
1.0489108e-05
1.0406207e-05
1.0432414e-05
1.0390304e-05
1.0554504e-05
1.0434439e-05
1.0631286e-05
1.0357864e-05
1.0700391e-05
1.0596176e-05
1.51586e-05
0.00013902123
0.0078782222
0.16280015
0.060219973
0.0015317563
3.1648147e-05
1.0535151e-05
1.0321052e-05
1.0207224e-05
1.0484025e-05
1.0297217e-05
1.0250778e-05
1.0341891e-05
1.0291512e-05
1.0316495e-05
1.0483378e-05
1.0342331e-05
1.0323673e-05
1.0496097e-05
1.6559435e-05
0.0001678515
0.0067182259
0.15008086
0.054058126
0.0013100051
2.2512803e-05
1.023374e-05
1.0275922e-05
1.0219727e-05
1.0481363e-05
1.0279173e-05
1.0222463e-05
1.0412919e-05
1.0444829e-05
1.0247466e-05
1.0374904e-05
1.0428052e-05
1.0350867e-05
1.0597769e-05
1.3169285e-05
8.1067541e-05
0.0048819109
0.13734402
0.047083536
0.0011206883
2.1288442e-05
1.0175087e-05
1.0169091e-05
1.0131421e-05
1.0241085e-05
1.0287106e-05
1.0163826e-05
1.0255295e-05
1.0297978e-05
1.030451e-05
1.0539078e-05
1.0536196e-05
1.0334938e-05
1.095469e-05
1.1482884e-05
4.0573933e-05
0.0029252263
0.12607846
0.041935025
0.00093220266
1.8982289e-05
1.025646e-05
1.0246798e-05
1.0177912e-05
1.0296823e-05
1.0308873e-05
1.0109354e-05
1.0141877e-05
1.016815e-05
1.0261726e-05
1.0501453e-05
1.0532524e-05
1.0406427e-05
1.0567869e-05
1.1809667e-05
4.2423512e-05
0.0028722247
0.11543503
0.037929965
0.00076542843
1.6581147e-05
1.0211439e-05
1.026064e-05
1.0250362e-05
1.0300222e-05
1.0258694e-05
1.0199438e-05
1.0281091e-05
1.0184587e-05
1.0331182e-05
1.0319673e-05
1.039929e-05
1.0501628e-05
1.0751045e-05
1.2731001e-05
8.8367043e-05
0.0028333941
0.10487912
0.034471953
0.00068734846
1.5103407e-05
1.0229467e-05
1.029235e-05
1.0248182e-05
1.0194821e-05
1.0195298e-05
1.0181929e-05
1.0307473e-05
1.0188035e-05
1.0358438e-05
1.0330128e-05
1.0266907e-05
1.0400638e-05
1.0587688e-05
1.2169152e-05
8.8247102e-05
0.003498787
0.095102384
0.031214239
0.00065229223
1.5220653e-05
1.0140718e-05
1.0189238e-05
1.0195617e-05
1.0099174e-05
1.0158783e-05
1.0312869e-05
1.0401588e-05
1.026286e-05
1.0394199e-05
1.0530528e-05
1.0203249e-05
1.0435089e-05
1.0364474e-05
1.1780872e-05
6.0320281e-05
0.0028373488
0.087386613
0.02840089
0.00056013055
1.4417404e-05
1.0119456e-05
1.0155116e-05
1.0107589e-05
1.0183001e-05
1.0198901e-05
1.0331516e-05
1.0332028e-05
1.0277813e-05
1.0360273e-05
1.0536549e-05
1.0388227e-05
1.0373362e-05
1.0467978e-05
1.2145061e-05
7.2985849e-05
0.0025226542
0.081941707
0.025802978
0.00051704917
1.3937505e-05
1.0198739e-05
1.0216292e-05
1.017352e-05
1.026147e-05
1.022653e-05
1.0188138e-05
1.0266842e-05
1.0358197e-05
1.0233892e-05
1.0572412e-05
1.0299029e-05
1.0642104e-05
1.0380377e-05
1.1935909e-05
7.0447919e-05
0.0028987878
0.07656082
0.022980728
0.00047414187
1.3792124e-05
1.0191501e-05
1.0211632e-05
1.0244582e-05
1.0222335e-05
1.0212301e-05
1.022611e-05
1.013553e-05
1.0215613e-05
1.0199574e-05
1.0637858e-05
1.0172182e-05
1.0716139e-05
1.0316528e-05
1.1780845e-05
5.7017334e-05
0.0025127297
0.070837837
0.020540767
0.00042968028
1.3641758e-05
1.010023e-05
1.0105973e-05
1.0162136e-05
1.0134233e-05
1.0177714e-05
1.0196629e-05
1.0168651e-05
1.0364406e-05
1.0209328e-05
1.0611045e-05
1.0365897e-05
1.0699033e-05
1.0248215e-05
1.1663539e-05
4.9986238e-05
0.0022161952
0.065125651
0.018445254