/*--------------------------------*- C++ -*----------------------------------*\
| =========                 |                                                 |
| \\      /  F ield         | OpenFOAM: The Open Source CFD Toolbox           |
|  \\    /   O peration     | Version:  1.7.x                                 |
|   \\  /    A nd           | Web:      www.OpenFOAM.com                      |
|    \\/     M anipulation  |                                                 |
\*---------------------------------------------------------------------------*/
FoamFile
{
    version     2.0;
    format      ascii;
    class       volScalarField;
    location    "0.0045";
    object      mut;
}
// * * * * * * * * * * * * * * * * * * * * * * * * * * * * * * * * * * * * * //

dimensions      [1 -1 -1 0 0 0 0];

internalField   nonuniform List<scalar> 
206988
(
2.6028545e-05
1.9221654e-05
4.406415e-06
7.6103446e-07
1.0216152e-07
2.0612304e-08
1.1797001e-08
1.1004462e-08
1.0975078e-08
1.0760915e-08
1.1041853e-08
1.0974706e-08
1.1287108e-08
1.1155874e-08
1.1151174e-08
1.1044122e-08
1.1401109e-08
5.93516e-08
1.2761281e-06
1.3370479e-05
2.2133755e-05
1.486544e-05
2.4444247e-06
3.4237212e-07
5.0165926e-08
1.5457846e-08
1.2608403e-08
1.1693827e-08
1.224136e-08
1.1031395e-08
1.2215716e-08
1.1142201e-08
1.1801023e-08
1.1180292e-08
1.1230696e-08
1.0861619e-08
1.0699642e-08
4.1800481e-08
3.656687e-06
1.4535599e-05
1.6785087e-05
8.1100185e-06
1.0048563e-06
1.1867268e-07
2.4127952e-08
1.3749362e-08
1.3244634e-08
1.2251649e-08
1.300609e-08
1.134852e-08
1.3098038e-08
1.1164762e-08
1.1906313e-08
1.0901082e-08
1.1506729e-08
1.0546512e-08
1.0785951e-08
2.2645432e-08
1.9120292e-06
1.4002442e-05
1.3142677e-05
3.7771396e-06
3.6103495e-07
4.2677718e-08
1.6890761e-08
1.407542e-08
1.407555e-08
1.3010558e-08
1.3599509e-08
1.1897229e-08
1.3244081e-08
1.1145709e-08
1.2014278e-08
1.0667078e-08
1.1509741e-08
1.0555878e-08
1.0595117e-08
2.38344e-08
2.1626058e-06
1.4281505e-05
1.1193906e-05
1.9946244e-06
1.2626917e-07
2.3192915e-08
1.6697756e-08
1.5076512e-08
1.609776e-08
1.3829276e-08
1.6698676e-08
1.208039e-08
1.67788e-08
1.1038184e-08
1.3868572e-08
1.0782369e-08
1.1892033e-08
1.0485558e-08
1.0620104e-08
1.6087715e-08
2.0610476e-06
1.4217922e-05
9.9570775e-06
1.1576862e-06
4.948875e-08
1.8240186e-08
1.6735283e-08
1.6189434e-08
1.6672874e-08
1.4564329e-08
1.7057835e-08
1.2159045e-08
1.7479128e-08
1.1420469e-08
1.375184e-08
1.0516313e-08
1.2811063e-08
1.0373176e-08
1.2283994e-08
3.883681e-08
1.8648506e-06
1.405035e-05
9.2606555e-06
9.7700545e-07
3.4275033e-08
1.8251846e-08
1.734352e-08
1.7247328e-08
1.6881221e-08
1.6035916e-08
1.6155333e-08
1.4124739e-08
1.4530616e-08
1.2401181e-08
1.3685716e-08
1.2551939e-08
1.2381037e-08
1.1484401e-08
1.2147224e-08
3.0260065e-08
1.9251425e-06
1.4354075e-05
8.6254137e-06
7.8625213e-07
2.983077e-08
1.9521758e-08
1.9094597e-08
1.855059e-08
1.7809643e-08
1.8167062e-08
1.6166978e-08
1.6225824e-08
1.5036835e-08
1.4830332e-08
1.3411687e-08
1.3672114e-08
1.2595659e-08
1.276253e-08
1.3370403e-08
5.5061335e-08
2.3872826e-06
1.3526915e-05
8.0314371e-06
7.1910377e-07
2.8673248e-08
2.0567536e-08
2.0059597e-08
1.9805486e-08
1.9020556e-08
1.861624e-08
1.7173538e-08
1.7168939e-08
1.571942e-08
1.5261578e-08
1.4240806e-08
1.3969605e-08
1.3291284e-08
1.3277843e-08
1.3405641e-08
5.0023395e-08
1.7957419e-06
1.2881154e-05
7.6950755e-06
6.4391136e-07
2.9425642e-08
2.2237428e-08
2.1722754e-08
2.1183159e-08
2.054181e-08
2.0028202e-08
1.8513536e-08
1.7817e-08
1.6372009e-08
1.5877446e-08
1.5226832e-08
1.5200393e-08
1.3847069e-08
1.4346869e-08
1.3646993e-08
4.187906e-08
1.5721196e-06
1.2318866e-05
7.4906706e-06
5.8692563e-07
3.042919e-08
2.4090503e-08
2.3958419e-08
2.3342079e-08
2.2413267e-08
2.162829e-08
2.0782347e-08
1.937203e-08
1.7648281e-08
1.7380961e-08
1.563956e-08
1.6739065e-08
1.4342716e-08
1.5932983e-08
1.4321683e-08
3.2289947e-08
1.1852534e-06
1.1395364e-05
7.2540542e-06
5.6874812e-07
3.1651472e-08
2.6925258e-08
2.5812871e-08
2.5329551e-08
2.4267225e-08
2.3926535e-08
2.3024301e-08
2.193547e-08
1.9492829e-08
1.98937e-08
1.6314619e-08
1.8717806e-08
1.5384862e-08
1.688011e-08
1.5280663e-08
4.2786892e-08
1.184357e-06
1.0817915e-05
6.6928605e-06
5.6583481e-07
3.2889637e-08
2.7971936e-08
2.7674221e-08
2.657808e-08
2.5485472e-08
2.583285e-08
2.3477011e-08
2.3892235e-08
2.003736e-08
2.2090588e-08
1.7378394e-08
2.0261527e-08
1.6558355e-08
1.8129001e-08
1.6410555e-08
3.8035163e-08
1.2223567e-06
1.0793891e-05
6.1465147e-06
5.8534055e-07
3.5524038e-08
2.9506803e-08
3.0061936e-08
2.8487519e-08
2.7949383e-08
2.6648798e-08
2.5262895e-08
2.5006855e-08
2.1554425e-08
2.489383e-08
1.8850998e-08
2.1277427e-08
1.7962112e-08
1.9259854e-08
1.8312819e-08
5.6726423e-08
1.3114691e-06
1.0912091e-05
5.5281372e-06
5.7789995e-07
3.8318691e-08
3.254054e-08
3.191464e-08
3.1835302e-08
3.0136752e-08
2.9258435e-08
2.7752539e-08
2.8854402e-08
2.2455441e-08
2.8124889e-08
2.0506954e-08
2.3159399e-08
1.9401306e-08
2.1082786e-08
1.9381368e-08
5.6222303e-08
1.5823305e-06
1.0971942e-05
4.979604e-06
5.6046438e-07
4.1116373e-08
3.478139e-08
3.4262962e-08
3.3739135e-08
3.2463939e-08
3.1716027e-08
2.8698544e-08
3.216328e-08
2.341865e-08
2.8665977e-08
2.203188e-08
2.4577666e-08
2.1076078e-08
2.2323751e-08
2.0889606e-08
5.7318773e-08
1.4119417e-06
1.0833757e-05
4.5110846e-06
5.6175743e-07
4.4452178e-08
3.7509428e-08
3.7427478e-08
3.6153176e-08
3.4746941e-08
3.5670864e-08
2.9389186e-08
3.5437479e-08
2.5060374e-08
2.9986881e-08
2.4161066e-08
2.5817728e-08
2.293064e-08
2.3640253e-08
2.2442089e-08
6.0838784e-08
1.5639185e-06
1.0809257e-05
4.0000394e-06
5.210979e-07
4.7088191e-08
4.2207044e-08
4.0527937e-08
4.0906615e-08
3.6561434e-08
4.0253742e-08
3.1920423e-08
3.8772494e-08
2.7326413e-08
3.2588388e-08
2.6219158e-08
2.8319531e-08
2.4501606e-08
2.5684738e-08
2.3845636e-08
5.3275232e-08
1.4673326e-06
1.0602801e-05
3.6119212e-06
4.9861709e-07
4.7708916e-08
4.4478012e-08
4.1891657e-08
4.3339899e-08
3.8573334e-08
4.2539101e-08
3.3969708e-08
4.2005504e-08
2.8917613e-08
3.5845792e-08
2.7495639e-08
3.1079579e-08
2.609278e-08
2.7690922e-08
2.5547008e-08
6.0288922e-08
1.3918138e-06
1.0279949e-05
3.2435983e-06
4.982879e-07
5.1085866e-08
4.7764452e-08
4.4781788e-08
4.6812257e-08
4.112204e-08
4.5164492e-08
3.5653411e-08
4.4865638e-08
2.9956339e-08
3.9523684e-08
2.8921509e-08
3.3399398e-08
2.7582525e-08
2.9973123e-08
2.7174228e-08
6.1630702e-08
1.4634328e-06
1.0019787e-05
2.8738143e-06
4.8879139e-07
5.5698917e-08
5.1724807e-08
4.8579483e-08
5.0586953e-08
4.5040989e-08
4.8549036e-08
3.9278115e-08
4.7511303e-08
3.3131529e-08
4.1381661e-08
3.1431279e-08
3.5060842e-08
2.9657774e-08
3.1463718e-08
2.9011454e-08
6.1775242e-08
1.3850554e-06
9.5272304e-06
2.5246655e-06
4.637988e-07
5.9174608e-08
5.5639803e-08
5.2256125e-08
5.429527e-08
4.8405343e-08
5.2144339e-08
4.2485908e-08
5.1359859e-08
3.5647139e-08
4.3526356e-08
3.4057425e-08
3.7462521e-08
3.2207875e-08
3.4011477e-08
3.1160621e-08
6.1232277e-08
1.2434689e-06
8.5286546e-06
2.2409714e-06
4.4096356e-07
6.1173002e-08
5.7901744e-08
5.4581162e-08
5.6574769e-08
5.0377227e-08
5.4746339e-08
4.4868062e-08
5.2887226e-08
3.7117708e-08
4.5631618e-08
3.5265777e-08
3.9744988e-08
3.362877e-08
3.6143438e-08
3.276188e-08
6.180308e-08
1.2258796e-06
7.4865105e-06
1.9608347e-06
4.2626772e-07
6.5432322e-08
6.2251874e-08
5.8488957e-08
6.0719897e-08
5.4245388e-08
5.8379028e-08
4.7722618e-08
5.7932282e-08
3.9346955e-08
5.0102941e-08
3.7250165e-08
4.2648091e-08
3.5692534e-08
3.8362633e-08
3.4838126e-08
6.1794632e-08
1.1321476e-06
6.5199888e-06
1.6826101e-06
4.0400722e-07
6.8966994e-08
6.6442003e-08
6.2566303e-08
6.4594571e-08
5.8065161e-08
6.2414683e-08
5.0732202e-08
6.2798481e-08
4.2160075e-08
5.4233874e-08
4.0161281e-08
4.5694311e-08
3.8053439e-08
4.0861679e-08
3.7035655e-08
6.1935116e-08
1.0295584e-06
5.6345406e-06
1.4335296e-06
3.7949105e-07
7.2525008e-08
6.9961623e-08
6.6191405e-08
6.8242322e-08
6.1301682e-08
6.6534406e-08
5.3373449e-08
6.6434237e-08
4.4287705e-08
5.6984856e-08
4.2380662e-08
4.8324059e-08
4.0368888e-08
4.3252996e-08
3.9282006e-08
6.2222589e-08
9.3816932e-07
4.7757674e-06
1.2077615e-06
3.4655242e-07
7.6797264e-08
7.4314882e-08
7.0346651e-08
7.2387861e-08
6.5155667e-08
7.0458102e-08
5.6849061e-08
6.9936836e-08
4.7087976e-08
6.0172989e-08
4.484612e-08
5.0830817e-08
4.2610403e-08
4.5415373e-08
4.1141317e-08
6.3041219e-08
8.7261486e-07
4.1183049e-06
9.7909102e-07
3.1879032e-07
8.1354081e-08
7.9771608e-08
7.5652385e-08
7.769896e-08
7.0369696e-08
7.5812093e-08
6.1920218e-08
7.4565353e-08
5.1568117e-08
6.5063435e-08
4.915911e-08
5.5634347e-08
4.6732741e-08
4.9820436e-08
4.5089186e-08
6.5440834e-08
7.9622191e-07
3.3235554e-06
8.1373256e-07
2.8644006e-07
8.368042e-08
8.2117516e-08
7.8138274e-08
7.96953e-08
7.2906892e-08
7.7455079e-08
6.435257e-08
7.6286046e-08
5.3858899e-08
6.6687844e-08
5.1186169e-08
5.7061282e-08
4.8638653e-08
5.1155749e-08
4.6876773e-08
6.6248792e-08
7.4713942e-07
2.8378854e-06
6.081519e-07
2.6586618e-07
9.1749213e-08
9.0007063e-08
8.6228827e-08
8.7184205e-08
8.0928013e-08
8.4280682e-08
7.2001118e-08
8.2234604e-08
6.0658979e-08
7.260144e-08
5.696183e-08
6.3182366e-08
5.3820737e-08
5.6632736e-08
5.1411828e-08
6.2983041e-08
5.6891124e-07
2.4798049e-06
2.0648389e-05
1.5209802e-05
1.0797784e-05
3.8968693e-06
4.5141127e-07
1.0426731e-07
6.0385655e-08
7.4321262e-08
5.8687675e-08
8.4201262e-08
5.8775928e-08
8.4214257e-08
6.0357265e-08
6.7773391e-08
5.1813626e-08
5.8939125e-08
2.5137866e-08
5.4116171e-07
1.5865595e-05
1.4401129e-05
2.2128839e-05
1.5991077e-05
7.547736e-06
1.3637296e-06
2.0655263e-07
5.8395932e-08
4.8571529e-08
5.3477185e-08
5.3241771e-08
7.2240963e-08
4.784265e-08
9.0629946e-08
5.4536998e-08
5.4469338e-08
4.891775e-08
4.8861378e-08
4.7932112e-08
6.9880472e-08
3.7954057e-06
1.4034218e-05
1.7444156e-05
1.2924136e-05
5.3810544e-06
5.2621928e-07
1.0251019e-07
5.4510264e-08
5.2405453e-08
5.1179201e-08
4.7798909e-08
7.3815714e-08
5.2694581e-08
5.5691257e-08
4.352866e-08
8.5670505e-08
3.3854492e-08
6.0789575e-08
3.3399647e-08
2.0916541e-07
3.871413e-06
1.4536175e-05
1.3676599e-05
8.0710363e-06
2.1118079e-06
2.1226124e-07
6.9346933e-08
6.2892429e-08
5.2191018e-08
5.4043646e-08
4.3774193e-08
6.0684304e-08
2.994115e-08
4.5705517e-08
2.3363295e-08
3.8994963e-08
3.4761919e-08
4.4894112e-08
3.7105117e-08
7.9679592e-08
7.9784941e-06
1.522063e-05
1.1693439e-05
4.9085359e-06
7.1990601e-07
1.0895488e-07
5.1467287e-08
6.5234621e-08
5.6263682e-08
7.4799294e-08
5.6563879e-08
5.3744492e-08
2.2850317e-08
3.011972e-08
3.0483369e-08
3.2137041e-08
2.3472909e-08
4.2673792e-08
4.6574885e-08
4.2175054e-07
9.8151605e-06
1.4786327e-05
1.0452067e-05
3.350993e-06
2.4555752e-07
7.3789259e-08
5.8698177e-08
5.5463429e-08
4.788026e-08
6.0743517e-08
4.9460859e-08
2.7712183e-08
3.0806592e-08
3.3086352e-08
3.9628263e-08
1.772465e-08
1.9227563e-08
1.9877847e-08
5.905533e-08
6.1382206e-07
9.462605e-06
1.4952502e-05
9.6061687e-06
2.691264e-06
1.6847522e-07
6.7005062e-08
7.4060773e-08
7.4397534e-08
5.2981809e-08
4.8051943e-08
4.7392662e-08
4.0901552e-08
6.7820755e-08
2.9723376e-08
4.0579989e-08
3.4417894e-08
3.7943208e-08
2.7346434e-08
4.4209726e-08
3.0871729e-07
5.9185438e-06
1.4762189e-05
9.0463923e-06
2.3216255e-06
1.2695454e-07
6.6729662e-08
6.0802785e-08
5.9365293e-08
6.8071673e-08
5.3540799e-08
5.9653311e-08
4.1377785e-08
4.4251739e-08
3.9718061e-08
5.605638e-08
3.0477163e-08
3.7616689e-08
3.4665592e-08
3.4888505e-08
2.1663931e-07
5.9880559e-06
1.4110025e-05
8.4929299e-06
1.9829311e-06
1.0139065e-07
6.8680035e-08
6.7691503e-08
6.151195e-08
6.3381516e-08
4.9533422e-08
6.119628e-08
6.8525305e-08
4.6772302e-08
4.4315474e-08
4.3917435e-08
5.518436e-08
4.2185645e-08
3.1449935e-08
4.4610902e-08
1.5503184e-07
4.3263128e-06
1.3579869e-05
8.1873262e-06
1.810947e-06
1.110915e-07
6.8778264e-08
6.6253682e-08
4.8108068e-08
4.5694377e-08
6.2522365e-08
4.6856831e-08
5.6749516e-08
4.8169408e-08
5.5933477e-08
5.0510513e-08
2.7584712e-08
5.7077762e-08
3.5256563e-08
6.2540262e-08
1.7047398e-07
4.1434548e-06
1.2923953e-05
7.8823298e-06
1.5808759e-06
1.1193833e-07
7.3263985e-08
8.1797218e-08
5.2978943e-08
5.8450253e-08
6.793644e-08
5.9167361e-08
5.7993433e-08
5.7053794e-08
4.2496498e-08
5.1223586e-08
3.8491039e-08
7.6177917e-08
3.8763528e-08
4.7963863e-08
2.2309849e-07
3.8574429e-06
1.2189829e-05
7.5258116e-06
1.5182067e-06
1.0216532e-07
7.567054e-08
7.9848045e-08
7.3688712e-08
6.5668947e-08
5.4347189e-08
5.7785333e-08
5.3702579e-08
9.5637991e-08
3.5593442e-08
5.833559e-08
4.5444018e-08
5.0329643e-08
4.8524909e-08
4.9369961e-08
2.7306016e-07
3.7597672e-06
1.1606141e-05
6.8322835e-06
1.3379444e-06
1.0525027e-07
8.2154753e-08
8.6312037e-08
5.7155237e-08
5.1543084e-08
8.4781192e-08
5.4681371e-08
5.983969e-08
7.8515131e-08
4.1955189e-08
5.4578584e-08
5.0855327e-08
5.0287774e-08
5.0498523e-08
5.2328941e-08
2.3127176e-07
3.162742e-06
1.1502955e-05
6.2936253e-06
1.2973822e-06
1.062668e-07
6.5968376e-08
8.225593e-08
4.9670579e-08
7.6774209e-08
6.1444718e-08
5.310554e-08
5.1751545e-08
8.3786267e-08
4.9067597e-08
5.6237973e-08
5.5318704e-08
5.1970123e-08
5.0247152e-08
5.527092e-08
2.5409982e-07
3.7422495e-06
1.1636325e-05
5.6613063e-06
1.2443244e-06
1.1752705e-07
5.188224e-08
9.2769517e-08
6.7425797e-08
7.5607341e-08
5.7568363e-08
5.1064796e-08
6.970048e-08
7.0563133e-08
6.7925011e-08
6.0510168e-08
5.7597805e-08
6.0704989e-08
5.2006228e-08
6.0661788e-08
2.3026242e-07
3.2644541e-06
1.1643578e-05
5.0626807e-06
1.1204122e-06
1.1973548e-07
6.7262614e-08
9.8436495e-08
7.4118479e-08
1.1715364e-07
4.9232388e-08
6.4619058e-08
8.4303266e-08
7.284676e-08
7.5580409e-08
6.4396296e-08
6.6160974e-08
5.9243785e-08
5.4420285e-08
5.9761933e-08
2.7623965e-07
3.2219995e-06
1.1530875e-05
4.5904488e-06
1.0592128e-06
1.0749101e-07
6.3994218e-08
9.5982874e-08
8.2533342e-08
1.1822953e-07
6.3842434e-08
8.7390962e-08
8.979312e-08
7.0553866e-08
7.9957746e-08
6.8116728e-08
6.9095157e-08
6.3367995e-08
5.2182579e-08
5.9951208e-08
2.4092766e-07
3.1778898e-06
1.1476933e-05
4.1119717e-06
9.9277264e-07
9.5784051e-08
8.9847188e-08
1.0545797e-07
9.1050068e-08
1.0765237e-07
9.7340019e-08
8.4688688e-08
9.2146728e-08
7.8253068e-08
8.3302313e-08
7.3829447e-08
6.8794675e-08
7.3327401e-08
6.52815e-08
7.6892937e-08
2.6285304e-07
2.9610344e-06
1.1241777e-05
3.68523e-06
9.1597069e-07
8.3813143e-08
9.7344709e-08
1.1527285e-07
1.0928192e-07
1.068674e-07
1.0186132e-07
9.515782e-08
9.2567812e-08
8.2628958e-08
8.282859e-08
7.7586791e-08
7.4015705e-08
6.9364423e-08
6.5821916e-08
7.0681874e-08
2.2748674e-07
2.5599957e-06
1.0928783e-05
3.2795852e-06
8.5801118e-07
1.1234963e-07
9.8221691e-08
1.2277945e-07
1.2028808e-07
1.1266689e-07
1.12051e-07
1.0225988e-07
1.0036418e-07
8.7750254e-08
8.5121038e-08
8.7353277e-08
7.9137214e-08
7.5488365e-08
6.4485276e-08
7.0204089e-08
2.2179111e-07
2.5372787e-06
1.0555603e-05
2.9029527e-06
7.7359754e-07
1.5693063e-07
1.0441549e-07
1.2584205e-07
1.2642757e-07
1.143274e-07
1.1592065e-07
9.8768085e-08
1.0988338e-07
8.9075637e-08
9.6339658e-08
8.4694234e-08
8.3426339e-08
7.6757152e-08
7.7185097e-08
8.1466166e-08
2.5047114e-07
2.3367774e-06
9.8766037e-06
2.5831359e-06
7.2242458e-07
1.6124766e-07
1.2708761e-07
1.3230349e-07
1.2993243e-07
1.2500416e-07
1.2335216e-07
1.1698292e-07
1.097992e-07
1.0176347e-07
9.7112282e-08
8.7632793e-08
8.7356999e-08
8.4207076e-08
7.4924772e-08
8.2072074e-08
2.1327115e-07
2.0505199e-06
8.7130457e-06
2.2624278e-06
6.4373065e-07
1.4728388e-07
1.3798038e-07
1.3253548e-07
1.3248601e-07
1.2283031e-07
1.2604763e-07
1.180361e-07
1.1364042e-07
1.0386712e-07
1.0627108e-07
9.6546987e-08
9.2058696e-08
9.1962082e-08
7.7558871e-08
8.7733136e-08
1.9484839e-07
1.675325e-06
7.6458918e-06
1.997779e-06
5.9220881e-07
1.5654339e-07
1.4488487e-07
1.4276269e-07
1.4484438e-07
1.3391422e-07
1.3623226e-07
1.2538237e-07
1.2366327e-07
1.1546317e-07
1.0417335e-07
1.0805307e-07
9.1948228e-08
9.5971237e-08
8.7498709e-08
9.4595005e-08
1.9780961e-07
1.5260627e-06
6.6257352e-06
1.7347072e-06
5.3869637e-07
1.6335364e-07
1.4754639e-07
1.4395588e-07
1.4377897e-07
1.3930202e-07
1.344682e-07
1.3358343e-07
1.294625e-07
1.2271226e-07
1.1440119e-07
1.0709893e-07
9.8424636e-08
9.6658535e-08
9.5686858e-08
9.7425404e-08
2.1226277e-07
1.3921211e-06
5.6814584e-06
1.4676982e-06
4.6936184e-07
1.6769692e-07
1.5764415e-07
1.5214823e-07
1.5421945e-07
1.4856295e-07
1.4881118e-07
1.4176959e-07
1.3371393e-07
1.2795461e-07
1.1987283e-07
1.1538664e-07
1.0392308e-07
1.0385584e-07
9.8123781e-08
1.0170975e-07
1.9235759e-07
1.1862393e-06
4.821847e-06
1.2459792e-06
4.1643872e-07
1.7116997e-07
1.5866665e-07
1.5639807e-07
1.5450737e-07
1.5406153e-07
1.4751765e-07
1.4822819e-07
1.400219e-07
1.3207689e-07
1.2534675e-07
1.1844425e-07
1.1175781e-07
1.0781704e-07
1.0024487e-07
1.0104067e-07
1.7921327e-07
1.017997e-06
4.1505337e-06
1.0236574e-06
3.558036e-07
1.771571e-07
1.6467686e-07
1.6228936e-07
1.6171015e-07
1.6032748e-07
1.5538707e-07
1.5330349e-07
1.4579248e-07
1.4031307e-07
1.3355503e-07
1.2765752e-07
1.1742521e-07
1.1711393e-07
1.0465862e-07
1.0731021e-07
1.8265226e-07
8.609805e-07
3.3441037e-06
8.4770273e-07
3.03296e-07
1.7580483e-07
1.6683444e-07
1.6439485e-07
1.6356393e-07
1.6189392e-07
1.5788675e-07
1.5725827e-07
1.512367e-07
1.4303323e-07
1.3964096e-07
1.2925436e-07
1.259341e-07
1.1929101e-07
1.1295154e-07
1.0762694e-07
1.7506161e-07
7.5463471e-07
2.8744673e-06
6.4148631e-07
2.4523191e-07
1.8387455e-07
1.730805e-07
1.712234e-07
1.7061266e-07
1.6943933e-07
1.65659e-07
1.6493888e-07
1.5869619e-07
1.5155002e-07
1.4342009e-07
1.4101905e-07
1.3164801e-07
1.3074563e-07
1.2032159e-07
1.1682495e-07
1.5057245e-07
5.4868201e-07
2.402351e-06
2.0750987e-05
1.2295811e-05
9.3670804e-06
3.5752137e-06
3.4200603e-07
1.1274169e-07
4.7724968e-08
5.600548e-08
5.2661348e-08
8.5034503e-08
4.8819428e-08
6.3506365e-08
5.1713116e-08
5.8184029e-08
3.6220264e-08
4.9117241e-08
2.7518119e-08
4.0021793e-07
1.4084127e-05
1.4385739e-05
2.1957597e-05
1.511456e-05
7.0377753e-06
1.2766127e-06
2.0016015e-07
6.2102066e-08
4.3550008e-08
4.9875248e-08
4.3404596e-08
5.8710379e-08
4.4552694e-08
7.4575624e-08
4.9459447e-08
5.6669704e-08
5.0013851e-08
3.7945275e-08
2.4877229e-08
1.2913341e-07
4.2236475e-06
1.3973581e-05
1.7402662e-05
1.2564162e-05
5.7662296e-06
5.350886e-07
9.8821044e-08
5.0496837e-08
4.5842444e-08
4.6735316e-08
4.4574193e-08
5.0383809e-08
2.7879514e-08
7.3436076e-08
2.9471754e-08
4.3546151e-08
3.087999e-08
2.454957e-08
2.4274071e-08
3.62253e-07
1.139508e-05
1.5000318e-05
1.3703874e-05
7.9425987e-06
2.0650413e-06
2.0364713e-07
6.0074305e-08
5.4093192e-08
4.6693987e-08
5.8690008e-08
3.71004e-08
7.3753345e-08
1.9745061e-08
1.1904114e-07
2.4061028e-08
4.4584793e-08
2.2187752e-08
3.2603689e-08
2.9424106e-08
6.6061137e-08
3.7158454e-06
1.4556267e-05
1.15181e-05
4.6617222e-06
6.9243573e-07
8.4286848e-08
5.5223631e-08
6.2050277e-08
5.6321577e-08
5.9323753e-08
4.3353625e-08
3.328479e-08
2.3524366e-08
3.9721169e-08
1.6945739e-08
3.4568908e-08
2.6606775e-08
3.5486508e-08
3.180533e-08
1.4594981e-07
7.0962733e-06
1.4685053e-05
1.0456862e-05
3.3060277e-06
2.8691014e-07
6.597472e-08
5.0858971e-08
5.9140591e-08
4.7577876e-08
5.0401098e-08
4.2139936e-08
3.2606883e-08
4.4221845e-08
2.2564651e-08
2.2465412e-08
1.8461807e-08
2.4211987e-08
2.5256725e-08
3.5683366e-08
4.3725499e-07
9.468659e-06
1.5047604e-05
9.7212857e-06
2.7293401e-06
1.8274924e-07
6.7480405e-08
5.4873932e-08
6.1745816e-08
5.7358127e-08
4.9099761e-08
5.1619661e-08
2.9545565e-08
2.4937275e-08
3.1227748e-08
4.1067009e-08
2.1129144e-08
3.244966e-08
2.7480917e-08
3.0423291e-08
1.9060791e-07
6.3043753e-06
1.4700558e-05
9.2023849e-06
2.2831385e-06
1.178123e-07
5.9113826e-08
5.2882527e-08
6.590139e-08
5.3583912e-08
6.1961245e-08
4.7235216e-08
4.352396e-08
6.2180347e-08
2.895078e-08
4.0890906e-08
4.1074657e-08
2.6974616e-08
3.8385014e-08
2.8892625e-08
2.2865546e-07
5.0565013e-06
1.4277585e-05
8.6476731e-06
2.0979582e-06
1.1662364e-07
6.5427963e-08
5.6970887e-08
5.8244531e-08
5.9977234e-08
5.4145224e-08
5.2433876e-08
4.0983325e-08
4.5458265e-08
4.2901868e-08
3.9227893e-08
4.1139578e-08
3.3970233e-08
2.9033514e-08
3.7047884e-08
1.5514815e-07
4.2517474e-06
1.3831866e-05
8.2716997e-06
1.8950814e-06
1.0115699e-07
6.845084e-08
5.0267799e-08
4.5183407e-08
5.5614844e-08
5.890703e-08
4.4179947e-08
5.5362341e-08
3.9553979e-08
5.9682752e-08
3.9258667e-08
3.1312056e-08
4.4387166e-08
2.6688887e-08
4.7239982e-08
2.1570903e-07
4.0363647e-06
1.3060414e-05
7.9891023e-06
1.6163998e-06
9.2598797e-08
5.8504225e-08
8.3967329e-08
5.7993145e-08
5.9181144e-08
6.0664003e-08
4.9123166e-08
4.9201437e-08
6.0395555e-08
3.8302577e-08
6.7287653e-08
2.743118e-08
6.1091995e-08
3.6053758e-08
4.5468006e-08
2.1142787e-07
3.7314442e-06
1.2295404e-05
7.7708646e-06
1.5413952e-06
1.195339e-07
6.5086992e-08
7.2735023e-08
5.5783794e-08
6.6355098e-08
5.5693052e-08
7.3699154e-08
4.6893657e-08
4.5562234e-08
3.5026714e-08
8.2517949e-08
4.6558045e-08
4.3385376e-08
4.4011556e-08
4.2856905e-08
2.6827823e-07
3.6650531e-06
1.1744267e-05
7.0363499e-06
1.4744313e-06
1.0169564e-07
8.3040938e-08
6.0180396e-08
5.9497447e-08
6.7959618e-08
4.3501484e-08
1.1692471e-07
3.9262578e-08
6.2973909e-08
3.4940817e-08
5.3306811e-08
4.7573574e-08
4.423311e-08
4.560725e-08
4.712835e-08
2.5493535e-07
3.598063e-06
1.1718242e-05
6.4247119e-06
1.3657819e-06
1.1077809e-07
6.9804216e-08
9.0662355e-08
5.1944552e-08
8.4880748e-08
5.1858312e-08
4.9077772e-08
6.1772599e-08
6.2950519e-08
3.7866754e-08
4.5723896e-08
5.1303376e-08
4.7934022e-08
4.4380581e-08
4.7283362e-08
2.3180964e-07
3.7898192e-06
1.1790366e-05
5.8634021e-06
1.2801602e-06
1.115912e-07
5.4871154e-08
1.2328004e-07
6.8754424e-08
9.8602209e-08
6.4997372e-08
7.8851291e-08
4.5098863e-08
7.5778586e-08
6.0961808e-08
5.7255068e-08
5.3828519e-08
5.209196e-08
4.772418e-08
5.8211662e-08
2.4157223e-07
3.2127044e-06
1.1778863e-05
5.2603956e-06
1.2581508e-06
1.3377792e-07
6.4526687e-08
8.4870852e-08
8.3951822e-08
9.8299587e-08
6.2586307e-08
1.0026899e-07
4.7405686e-08
8.752072e-08
6.7248097e-08
5.7888059e-08
5.6543199e-08
5.1614396e-08
5.0413445e-08
5.9035497e-08
3.1339745e-07
3.1979155e-06
1.16461e-05
4.700522e-06
1.162324e-06
9.3804322e-08
7.3640411e-08
1.0558013e-07
7.0247196e-08
1.0168711e-07
7.4032631e-08
1.0084555e-07
7.6077264e-08
7.0179899e-08
7.5875332e-08
6.2030523e-08
6.5024203e-08
5.7112025e-08
5.2865763e-08
5.7767615e-08
2.7510598e-07
3.3972873e-06
1.1587074e-05
4.2146277e-06
1.026685e-06
1.3770206e-07
6.3753168e-08
9.6294966e-08
8.5573383e-08
9.9280365e-08
9.0078228e-08
8.7600568e-08
8.9730081e-08
8.0632748e-08
7.3838926e-08
7.5506762e-08
6.0221367e-08
6.6721055e-08
5.3008762e-08
6.1836997e-08
2.3878412e-07
2.9003189e-06
1.1375427e-05
3.8026123e-06
9.6000657e-07
1.0381158e-07
9.0203554e-08
1.0945995e-07
1.0600276e-07
1.0046737e-07
9.7941158e-08
9.3333268e-08
8.4253267e-08
8.3883426e-08
7.7946468e-08
7.0323286e-08
6.569871e-08
6.414349e-08
5.9095145e-08
6.1292969e-08
2.3843341e-07
2.5750199e-06
1.100992e-05
3.3901059e-06
8.9104512e-07
1.0024873e-07
9.9808704e-08
1.1308336e-07
1.0989529e-07
1.0873987e-07
1.1084785e-07
9.8065572e-08
9.7586045e-08
8.456079e-08
9.5528616e-08
7.5956609e-08
7.3637871e-08
7.1021816e-08
6.2724596e-08
7.034687e-08
2.4735693e-07
2.5250347e-06
1.0644308e-05
2.9893439e-06
8.0560359e-07
1.3211635e-07
1.0591257e-07
1.1525588e-07
1.1446717e-07
1.079426e-07
1.1384537e-07
1.0108413e-07
1.033064e-07
8.1340252e-08
9.377612e-08
7.5521433e-08
7.7266186e-08
7.2642927e-08
6.3264005e-08
6.7808469e-08
2.3652451e-07
2.2394446e-06
9.9976755e-06
2.6853254e-06
7.4962196e-07
1.4024869e-07
1.2043547e-07
1.2282943e-07
1.1985459e-07
1.1615732e-07
1.1510139e-07
1.0512818e-07
1.1571306e-07
9.9038384e-08
8.1761623e-08
8.9188637e-08
7.501136e-08
7.8716436e-08
6.6241592e-08
7.1375624e-08
2.0602505e-07
2.1162873e-06
8.8241727e-06
2.3651429e-06
6.9355438e-07
1.4375745e-07
1.2634535e-07
1.2464873e-07
1.2433167e-07
1.1884114e-07
1.1685797e-07
1.0952913e-07
1.0648427e-07
1.0546795e-07
9.8833571e-08
9.1267348e-08
8.5219666e-08
7.724072e-08
7.8669618e-08
7.9814267e-08
1.9995473e-07
1.6957567e-06
7.7347629e-06
2.0710562e-06
6.2509913e-07
1.5067229e-07
1.3644564e-07
1.3291994e-07
1.3095898e-07
1.2922263e-07
1.2774348e-07
1.2057075e-07
1.1476103e-07
1.036785e-07
1.0268301e-07
9.7757944e-08
9.0829578e-08
8.5942823e-08
7.8640308e-08
8.1656953e-08
1.9932373e-07
1.6081049e-06
6.7221417e-06
1.8067514e-06
5.5772974e-07
1.5409434e-07
1.3963338e-07
1.3856586e-07
1.3473489e-07
1.3255541e-07
1.2652267e-07
1.2760208e-07
1.1827423e-07
1.111668e-07
1.0727002e-07
1.0284535e-07
9.773135e-08
9.0969397e-08
8.3779466e-08
8.561272e-08
1.8640468e-07
1.4046673e-06
5.8035848e-06
1.5456027e-06
5.0684162e-07
1.6300484e-07
1.4349113e-07
1.4253203e-07
1.3863092e-07
1.3878432e-07
1.3407584e-07
1.301102e-07
1.2515716e-07
1.1864571e-07
1.1295796e-07
1.0275855e-07
1.0127055e-07
9.6182167e-08
8.8875043e-08
9.2795467e-08
1.882318e-07
1.2093169e-06
4.9218516e-06
1.3137894e-06
4.429835e-07
1.6127272e-07
1.4933063e-07
1.4558958e-07
1.4410297e-07
1.4346171e-07
1.3975161e-07
1.3734141e-07
1.3106127e-07
1.1919707e-07
1.1336388e-07
1.0925674e-07
1.0040776e-07
1.0062744e-07
9.2056029e-08
9.317856e-08
1.864126e-07
1.0756161e-06
4.245579e-06
1.0886059e-06
3.7971281e-07
1.6642967e-07
1.5143365e-07
1.5035525e-07
1.4793542e-07
1.4824127e-07
1.4450116e-07
1.4079921e-07
1.3700326e-07
1.2907531e-07
1.2463177e-07
1.1597011e-07
1.1199572e-07
1.0724789e-07
1.0071652e-07
1.0137017e-07
1.84524e-07
9.1423253e-07
3.4390162e-06
9.1393938e-07
3.2813932e-07
1.6531186e-07
1.5542494e-07
1.5396012e-07
1.5378522e-07
1.5046604e-07
1.4878743e-07
1.4463789e-07
1.4060353e-07
1.2934806e-07
1.3017303e-07
1.1991478e-07
1.1731845e-07
1.091902e-07
1.050014e-07
1.0179955e-07
1.7560437e-07
7.9278688e-07
2.9456529e-06
7.0189071e-07
2.6856293e-07
1.7331452e-07
1.6107256e-07
1.5973304e-07
1.5879386e-07
1.5704653e-07
1.5382548e-07
1.5072677e-07
1.4816365e-07
1.3690814e-07
1.3573606e-07
1.3059209e-07
1.2236564e-07
1.2025439e-07
1.1370858e-07
1.1344287e-07
1.4960417e-07
5.9168032e-07
2.6366618e-06
2.0674887e-05
1.1976168e-05
9.9245917e-06
3.3858421e-06
4.6557681e-07
1.0663629e-07
4.4178829e-08
5.8879877e-08
5.1609447e-08
6.1626184e-08
5.4208974e-08
6.675714e-08
5.2191762e-08
6.1875413e-08
5.271777e-08
4.7161124e-08
5.9509264e-09
2.7383167e-06
1.592662e-05
1.4275326e-05
2.1998685e-05
1.4459342e-05
6.7409084e-06
1.2460779e-06
1.8465035e-07
5.6071504e-08
4.0587809e-08
5.7246791e-08
4.1482117e-08
6.032033e-08
4.2052435e-08
6.0156646e-08
5.4839744e-08
4.4819002e-08
4.010812e-08
4.2855185e-08
1.6815053e-09
1.7888748e-06
6.4733604e-06
1.4360267e-05
1.7416159e-05
1.1898399e-05
5.2493705e-06
5.0593577e-07
8.7707219e-08
4.7697344e-08
4.3597813e-08
4.9350629e-08
4.3418059e-08
5.9098346e-08
4.4238206e-08
4.9185742e-08
3.8026788e-08
5.3320125e-08
3.2686933e-08
2.9329376e-08
1.3588818e-08
6.5537133e-07
9.3690197e-06
1.4886055e-05
1.3670174e-05
8.1102244e-06
1.8220201e-06
1.8632972e-07
5.7487233e-08
5.7936584e-08
4.3851266e-08
5.874664e-08
3.3669975e-08
5.2686896e-08
2.3444004e-08
3.5740035e-08
2.9707542e-08
3.8137106e-08
2.7738764e-08
4.5076103e-08
2.8573387e-08
2.0871736e-07
4.9246516e-06
1.465625e-05
1.1698505e-05
5.0801127e-06
7.7793719e-07
9.0466219e-08
5.0868836e-08
6.1676175e-08
4.1914549e-08
6.9526297e-08
4.4587346e-08
6.6683234e-08
1.6750505e-08
3.8421228e-08
3.0682749e-08
4.4734006e-08
1.9697727e-08
2.9285021e-08
2.8011016e-08
2.8779228e-07
8.3159846e-06
1.4969637e-05
1.0509244e-05
3.3959813e-06
3.2103722e-07
7.1205189e-08
5.6042269e-08
6.021861e-08
4.1631184e-08
4.7213493e-08
4.5977192e-08
3.8995746e-08
4.2879274e-08
3.2711538e-08
5.1975637e-08
2.2141434e-08
2.5792452e-08
2.3594482e-08
3.8581951e-08
2.7470801e-07
7.920314e-06
1.4804029e-05
9.7175855e-06
2.6757931e-06
1.7287957e-07
6.97324e-08
6.3368735e-08
6.380976e-08
4.0599479e-08
4.3883333e-08
5.8495262e-08
3.0855792e-08
3.9825476e-08
2.0384442e-08
8.4186946e-08
2.1824862e-08
2.219378e-08
2.4886069e-08
3.8097085e-08
3.9048406e-07
7.0809603e-06
1.4835781e-05
9.3502151e-06
2.3891351e-06
1.1342724e-07
6.6008269e-08
5.2157537e-08
6.1108214e-08
5.2884872e-08
3.5471709e-08
5.4932478e-08
4.6952799e-08
4.6227896e-08
4.6532633e-08
4.2809796e-08
3.6647768e-08
3.2132734e-08
2.7089627e-08
4.3872411e-08
2.1337643e-07
5.5046211e-06
1.454024e-05
8.8215953e-06
2.174658e-06
1.2471663e-07
6.2702393e-08
4.591757e-08
4.2773874e-08
5.3011307e-08
4.8369012e-08
5.170279e-08
7.0175791e-08
4.549175e-08
4.0443145e-08
4.161797e-08
5.3156376e-08
4.8317029e-08
2.6799984e-08
3.7204435e-08
1.4146967e-07
3.6259156e-06
1.3824059e-05
8.4322026e-06
1.9437911e-06
1.2855799e-07
6.0935122e-08
6.4748372e-08
4.9634136e-08
5.9562631e-08
4.5400023e-08
4.3896892e-08
7.4434789e-08
3.8603628e-08
4.2983944e-08
6.9406469e-08
4.0183917e-08
3.8641087e-08
3.3739564e-08
4.2739638e-08
1.4882508e-07
3.6582783e-06
1.3188282e-05
8.1378882e-06
1.6845198e-06
1.1951892e-07
8.5139854e-08
6.8687192e-08
5.501825e-08
7.5882877e-08
5.6028934e-08
5.1272668e-08
5.6508228e-08
4.3927078e-08
3.7709855e-08
6.0491842e-08
3.2383064e-08
5.1970417e-08
3.8894413e-08
5.029741e-08
2.7888618e-07
3.6229997e-06
1.2605273e-05
7.9262107e-06
1.5715055e-06
9.9248459e-08
7.4485431e-08
8.0610669e-08
8.0422396e-08
6.3584061e-08
5.5111706e-08
5.1015767e-08
5.9630817e-08
6.5620077e-08
4.0833247e-08
4.8973505e-08
4.1161699e-08
4.2034902e-08
3.9488571e-08
4.6258494e-08
3.0590678e-07
4.4051504e-06
1.2152785e-05
7.297601e-06
1.519632e-06
1.0929356e-07
7.2438326e-08
7.4071365e-08
7.7385079e-08
7.6698252e-08
7.4022027e-08
7.3693963e-08
3.883762e-08
5.1403903e-08
4.8732323e-08
5.7112209e-08
4.5099099e-08
5.0262501e-08
4.3396407e-08
4.6840253e-08
2.2885532e-07
3.7791676e-06
1.1938322e-05
6.6663929e-06
1.3756401e-06
1.0903604e-07
6.3623281e-08
7.8398559e-08
7.861345e-08
7.8358869e-08
7.489936e-08
8.379731e-08
3.5112617e-08
5.4990399e-08
6.7837808e-08
5.8695207e-08
5.3569957e-08
4.5376914e-08
4.320924e-08
5.2677124e-08
2.9726847e-07
3.4201009e-06
1.1917909e-05
6.0786152e-06
1.3052398e-06
1.1519198e-07
5.2669289e-08
9.4171359e-08
9.4275826e-08
8.5549722e-08
5.5648428e-08
8.4928426e-08
4.9561622e-08
6.0395796e-08
8.2394134e-08
6.0010855e-08
5.6421268e-08
4.9634914e-08
4.651057e-08
5.329824e-08