/*--------------------------------*- C++ -*----------------------------------*\
| =========                 |                                                 |
| \\      /  F ield         | OpenFOAM: The Open Source CFD Toolbox           |
|  \\    /   O peration     | Version:  1.7.x                                 |
|   \\  /    A nd           | Web:      www.OpenFOAM.com                      |
|    \\/     M anipulation  |                                                 |
\*---------------------------------------------------------------------------*/
FoamFile
{
    version     2.0;
    format      ascii;
    class       volScalarField;
    location    "0.0045";
    object      omega;
}
// * * * * * * * * * * * * * * * * * * * * * * * * * * * * * * * * * * * * * //

dimensions      [0 0 -1 0 0 0 0];

internalField   nonuniform List<scalar> 
206988
(
6807.8403
797.71637
528.40196
435.59316
416.79281
414.43521
414.17388
414.15744
414.10075
414.08224
414.04279
414.01565
414.02585
414.08818
414.19254
414.36423
414.19473
416.02196
452.82371
5965.5671
6275.0784
673.19287
459.39681
413.63903
406.70221
406.20646
406.52544
407.01388
407.53511
408.17459
408.88392
409.54194
410.0937
410.6431
411.1256
411.6931
411.29705
412.65536
517.53143
6014.7675
5838.3217
555.63151
426.53943
408.1845
406.36052
406.48537
406.89262
407.43288
408.00205
408.72444
409.49487
410.23448
410.87083
411.54364
411.69868
412.34262
411.81328
412.56349
473.74666
6004.5219
5558.9083
486.39403
421.8059
415.38343
414.84992
414.73535
414.73152
414.65628
414.72911
414.56428
414.90978
415.00466
414.935
417.06413
411.99315
414.58981
412.26739
413.52743
477.54847
5950.0966
5393.4874
439.2233
406.60397
405.01074
405.13996
405.33485
405.5428
404.62261
407.74183
404.76637
412.35643
412.41464
408.06099
411.28158
409.38465
411.12271
410.2161
411.76118
470.40736
5913.2159
5297.8194
423.64248
405.23947
404.94174
405.1444
405.33958
405.42843
404.22057
409.38274
409.14076
404.55477
403.82813
417.05692
413.1934
409.34411
410.78803
411.224
412.53717
463.87389
5851.6124
5235.6986
430.36083
415.25398
414.95811
414.90602
414.8208
414.70404
414.32428
415.76407
412.3772
415.86245
414.48786
415.0045
414.55902
415.02558
414.51091
415.14258
415.41088
464.13489
5764.2771
5177.0744
416.75009
405.96137
406.05534
406.34678
406.68954
407.0501
407.51984
408.49988
407.11882
410.76546
409.81916
411.84367
411.32904
412.5549
412.52071
413.50468
414.66092
471.31475
5690.409
5132.9168
415.02882
405.66728
405.7877
406.06696
406.39128
406.75449
407.08948
407.49406
406.77756
410.92101
409.74935
410.80845
410.78763
411.98332
411.95109
412.69545
413.69117
454.56863
5613.1004
5097.0613
422.59717
414.57611
414.47355
414.4991
414.46034
414.40189
414.19998
414.10582
413.21916
415.77548
414.29691
414.69495
414.10147
414.84975
414.0284
415.88209
415.90765
449.69511
5523.118
5069.9325
421.33458
414.57527
414.47244
414.45912
414.32884
414.51898
414.24783
414.20545
413.66112
415.09884
414.38858
414.61195
414.08581
414.71951
414.16768
415.41812
415.3581
439.94794
5431.186
5043.1258
411.42243
405.69205
405.83485
406.06741
406.29279
406.8733
407.17286
407.62152
407.41288
410.20229
409.84306
410.71355
410.92692
411.57333
411.63634
412.54789
413.07681
436.17584
5365.1846
5024.8818
411.33392
406.00699
406.20159
406.43599
406.66866
407.17793
407.47228
408.3025
407.09136
411.66649
411.02277
411.38082
411.68778
412.44479
412.68278
413.1192
413.67596
436.01145
5327.6707
5006.4118
420.7104
415.2794
415.21549
415.14742
415.06544
415.13858
414.87675
415.00018
413.0456
417.76335
416.38576
414.82176
415.08903
415.25178
415.21393
415.17455
415.78737
437.6949
5297.3924
4986.6836
409.67823
405.07061
405.25543
405.72523
406.00796
406.41568
407.12365
407.84328
407.98591
410.04605
410.49955
410.8211
411.47255
411.65281
412.05148
412.42572
413.25836
438.21018
5263.5216
4968.9387
409.35886
405.14807
405.36369
405.66549
405.95449
406.37962
406.85388
408.01069
407.87805
410.06689
410.49682
410.99117
411.53686
411.63141
412.04178
412.42505
413.22391
434.30098
5229.9902
4952.9453
419.50615
415.35764
415.22382
415.2052
415.06806
415.52073
415.38841
415.63433
415.85817
415.03869
415.77322
414.97295
415.2342
415.0771
415.11807
415.11666
415.63999
436.9802
5193.3939
4936.9997
409.41384
406.14877
406.27108
406.52842
406.6726
407.66982
407.82812
408.51128
408.41375
410.91407
411.32323
411.17966
411.82735
412.24851
412.62255
412.97622
413.60585
432.5832
5157.3785
4924.6117
408.83135
405.88397
406.03606
406.23944
406.33248
406.7318
406.30584
409.00897
408.38048
410.42295
410.44677
410.78222
411.13559
411.61047
411.86795
412.18574
412.79999
429.64375
5122.8628
4913.3591
417.81254
414.89079
414.84415
414.7791
414.70127
414.60469
413.92768
415.49385
413.92786
415.70647
414.71842
415.14468
414.76536
414.90754
414.76985
414.74137
415.05736
431.32734
5087.1431
4901.9862
417.59127
414.98346
414.94975
414.92145
414.87267
414.88915
414.58566
415.17442
414.27707
415.67908
414.91061
415.18164
414.88476
415.06283
414.90657
414.89956
415.16895
429.55501
5051.0306
4890.9378
408.117
406.09571
406.29623
406.55663
406.8251
407.30186
407.531
408.55326
408.6157
410.31381
410.40588
411.10967
411.37493
411.97696
412.18045
412.48933
412.95239
425.12082
5014.6935
4882.1916
408.15636
406.3956
406.60632
406.94704
407.26701
407.72749
408.17779
408.9704
409.73059
410.19019
410.94254
411.62613
412.06136
412.6672
412.9647
413.32029
413.80906
425.02082
4980.3072
4872.8654
417.42702
415.65729
415.60445
415.61175
415.52919
415.50431
415.14072
415.9928
415.5212
415.60299
415.4702
415.40823
415.35942
415.42704
415.38227
415.36013
415.55482
424.99598
4949.068
4864.8614
406.72518
405.47556
405.72332
406.033
406.40082
406.85333
407.41601
407.97304
408.72214
409.53218
410.24973
410.85866
411.37628
411.85923
412.22672
412.54774
412.99882
421.2289
4920.0324
4856.9655
406.52821
405.47559
405.71418
406.08285
406.41495
406.8407
407.27078
408.13036
408.76261
409.52779
410.26377
410.8794
411.40101
411.85107
412.21947
412.5522
412.97589
419.96864
4892.2891
4849.7632
416.83978
415.76736
415.74818
415.71763
415.70765
415.67528
415.65633
415.62981
415.59058
415.54013
415.4979
415.45529
415.4133
415.38437
415.35305
415.34307
415.46613
421.42471
4871.5312
4843.0687
407.16441
406.53934
406.77201
407.08747
407.4464
407.80371
408.3163
408.89734
409.5887
410.34233
411.05031
411.64983
412.15588
412.58046
412.9462
413.26049
413.64858
418.74699
4845.7013
4837.8604
406.75224
406.26257
406.49074
406.76982
407.09533
407.47118
407.93019
408.47437
409.10862
409.80293
410.44572
410.98365
411.43707
411.82195
412.15036
412.42805
412.76273
417.32573
4830.4182
4831.0108
415.75783
415.20818
415.19286
415.18221
415.167
415.15274
415.12894
415.10628
415.07601
415.04907
415.01088
414.98554
414.96511
414.94153
414.92479
414.91187
414.95629
417.89278
4819.371
6420.5507
2459.6851
727.64944
206.71964
113.01485
76.322391
85.607629
71.591704
77.704014
67.162986
69.375386
77.613111
78.990975
87.355892
104.3339
135.01597
152.41527
195.28842
1215.3509
5987.5649
6264.7138
1990.6482
450.52676
133.6053
70.560432
59.006267
67.039915
57.028793
66.088955
54.020089
66.607542
69.203696
77.072037
80.70301
90.246079
115.98479
146.07014
167.52821
1005.8744
5993.7232
5855.9184
1488.2133
272.88145
89.624997
66.767603
60.479872
65.118203
58.952657
63.673011
63.989301
72.407171
70.473532
83.506722
77.210337
92.110266
110.76816
140.99519
151.67573
1001.8259
5994.7748
5565.8177
1044.8037
159.69293
88.903526
68.15409
70.347292
62.71457
66.892861
66.151677
63.024897
73.475884
70.91705
111.77969
73.759421
89.143178
98.44107
118.33793
153.59181
1109.916
5985.367
5407.9955
839.23247
86.658372
59.249715
56.394601
64.58142
53.007691
74.288654
50.456455
72.452031
71.173034
92.334763
85.960267
111.61258
108.89657
97.110986
93.534
185.24957
1192.3831
5954.3308
5308.3169
732.22783
76.965924
63.05486
59.785243
59.589796
57.152038
74.022581
53.189654
67.920676
59.003673
103.93956
65.137532
89.590779
90.054901
111.51046
103.60353
196.3982
1264.9605
5861.655
5241.1436
682.76697
76.393436
63.822348
59.892147
58.248725
58.257549
67.487086
65.0444
85.878155
59.535986
83.7607
72.910452
101.89597
70.794509
100.37498
108.75241
164.08692
1080.8649
5774.8613
5188.3504
628.18639
58.513166
47.092909
47.724093
45.400465
50.284336
54.200668
51.555888
65.095991
57.516183
71.45252
65.029635
88.833831
67.557891
89.911709
100.46634
141.70712
1041.2582
5698.7722
5142.8452
577.91026
63.033901
51.292192
50.605523
50.143137
47.680531
48.937879
54.843005
51.002419
57.378894
69.128029
62.587828
81.460147
72.150915
90.284455
97.720841
136.97028
959.34215
5623.7358
5108.4776
572.94552
60.663627
51.383249
50.938343
51.439334
50.264094
48.480063
50.090175
49.11462
55.51972
67.288219
59.89789
70.080309
74.017212
97.459377
96.949629
122.7813
927.35192
5543.338
5076.8198
536.33277
54.801404
48.008884
48.173383
48.754341
50.615015
43.480983
51.375426
47.527582
49.77248
65.553518
57.939867
71.093337
73.451699
88.317441
94.380357
119.95366
901.44722
5462.8134
5051.8164
516.76603
48.39799
40.338811
41.332742
42.107378
45.137197
40.167879
48.736247
49.277135
46.659032
64.974411
58.204841
64.139987
75.960307
80.165706
87.569353
128.83876
892.73799
5392.9739
5029.0507
486.08709
54.640218
44.145838
44.300473
43.644312
45.156176
43.986279
50.13713
50.734009
46.372779
59.411858
56.328638
65.28191
75.408824
86.228103
84.646247
126.74292
845.84479
5348.4794
5011.3842
482.0579
52.864311
44.382135
46.141623
41.804622
48.160771
38.613187
53.617765
51.925742
48.386601
49.457576
58.126913
59.553787
70.249714
80.725827
86.428217
109.84399
864.34728
5317.7157
4990.6887
459.97333
41.861349
34.641048
36.839602
33.31131
37.656178
36.58076
42.769458
48.851661
40.643413
50.137679
56.820818
58.40659
70.195457
70.025448
84.590373
110.3672
832.77252
5282.4872
4971.0154
438.63107
49.351186
40.384435
42.408366
39.328078
42.891471
40.288676
44.274539
42.826381
44.220621
41.849581
54.441955
54.700953
68.404993
63.707283
84.739448
117.06891
823.33999
5249.1665
4955.5552
435.97802
46.335519
39.310143
41.887522
37.665578
42.94442
38.168217
46.22159
34.81369
45.22744
46.692241
56.410532
56.262018
68.653257
62.564919
79.477837
103.47105
810.23917
5211.7648
4940.1296
416.12357
36.792852
31.236331
32.056837
32.763862
33.207533
35.277184
35.498508
37.031485
41.653046
41.229217
53.193008
50.944151
63.135505
61.602011
75.502933
98.931026
791.24362
5173.6944
4926.438
405.20396
42.113224
35.758993
35.811583
36.225063
37.624384
34.457221
38.184722
31.435835
43.333239
36.923317
51.665612
43.557323
58.734026
52.2251
72.152616
99.357467
749.49867
5136.76
4913.9422
395.15675
39.629313
33.937605
34.547149
35.564356
35.401236
39.07496
32.287203
43.912539
34.985787
46.610382
46.093469
51.963288
54.647881
54.675101
67.115782
92.315452
747.81446
5098.7639
4902.8746
378.31139
36.128431
30.764707
29.840357
34.106581
28.935303
34.335259
32.011941
34.198835
34.186269
37.863155
41.542017
45.291443
47.718036
53.621901
61.259655
87.882584
730.88769
5059.7399
4892.6575
368.60422
34.508224
29.586567
29.215292
31.689125
28.907399
33.568821
27.628907
37.319841
34.769424
36.364899
42.852045
40.646295
48.381269
44.758517
58.755445
87.073742
698.17109
5021.5602
4882.3685
355.22307
34.927592
31.793695
29.474819
31.658908
28.716464
31.593936
32.286063
30.382877
37.641716
36.004848
39.509873
40.974352
47.027186
43.676674
55.851413
90.422802
654.30058
4986.2516
4874.0535
348.55261
35.858965
31.483058
30.523369
32.600907
30.536101
31.869757
31.986365
31.602514
36.424266
32.88898
39.501129
38.220929
45.750535
41.34903
53.096442
85.59877
645.71688
4952.5996
4866.1661
335.76508
29.346765
24.772461
23.87072
25.656627
25.358473
24.309473
27.933647
25.909733
31.435366
28.565984
35.265408
32.388893
41.728704
36.930142
47.833861
83.535728
637.8616
4922.2691
4857.5026
330.7042
33.218042
28.970369
28.457379
28.427021
29.500244
28.242573
30.776486
27.990196
32.497591
28.90162
34.614315
29.845122
37.025997
31.705177
42.025006
78.770962
610.04826
4894.4833
4850.8037
316.36435
31.544423
26.777954
26.550935
26.045028
27.345301
26.286402
29.311326
27.741246
31.189931
28.225579
32.445973
28.692594
33.786343
29.767264
36.921735
72.600869
589.24583
4872.595
4843.9582
310.16161
29.023957
23.631167
23.493477
23.700467
24.561322
23.904973
25.490386
24.504464
27.310792
26.354584
30.410729
27.972532
32.678784
29.439105
36.999153
67.565755
585.96773
4846.9648
4838.4785
301.18245
31.321906
26.520475
26.55296
26.284327
26.6533
26.29891
27.276266
25.888013
28.380023
26.750422
29.825506
27.906328
31.453883
28.830637
31.517269
59.859169
583.52968
4832.2354
4832.1073
311.52319
30.357576
24.492364
24.663149
24.601921
25.156632
24.997812
26.902279
26.178479
28.616577
27.294066
30.194843
29.283357
32.158361
30.089283
32.508216
51.270709
502.73364
4816.8621
6424.74
2426.776
715.19952
179.17912
56.760987
41.168946
36.063749
27.808183
21.045212
19.238266
22.555685
20.215344
22.447927
33.636337
58.470843
57.784827
93.065436
126.6774
1240.0488
5987.5372
6263.8288
2058.7486
478.35341
108.53835
39.670158
25.403971
20.247973
20.863564
20.17506
12.806402
24.803089
16.426735
25.455929
36.819096
42.316985
45.304552
90.551888
105.55303
1096.1537
5991.8317
5860.6164
1545.6833
260.75778
51.382104
22.591723
30.723782
24.649087
14.326091
13.69508
14.743785
23.958297
15.859873
22.609529
35.102673
43.585489
53.761891
78.348283
123.29959
1334.0674
6000.126
5572.6705
1086.3475
133.69452
26.17297
14.900677
28.980484
32.417069
17.024671
25.684979
17.002487
29.559566
20.894048
32.578856
30.86829
55.859074
44.40815
66.839505
111.548
1201.5157
5979.9156
5406.1924
839.33891
66.532939
18.536616
18.263351
27.074526
29.360318
21.183033
19.788144
23.031673
51.089014
27.237459
33.994552
28.811521
63.799277
47.122062
71.864933
106.22996
1151.8443
5918.3927
5315.758
741.86599
43.635538
17.822398
18.186944
22.788603
29.46321
25.960529
28.19534
22.32634
39.604221
36.479882
41.652786
42.96296
47.237662
45.095125
68.026288
120.10263
1231.0519
5861.4582
5249.9543
696.00356
33.812242
16.739923
15.5835
15.264049
19.801721
20.683912
21.753017
35.880339
24.667059
28.778011
28.173677
37.527369
46.132158
46.972895
55.374419
98.12141
1084.4489
5807.7725
5199.2378
634.51665
32.338451
16.364983
15.975313
15.993319
15.396797
19.786693
11.312842
25.044546
20.051623
28.033586
30.988006
45.333145
38.357207
39.821861
60.118621
96.658963
1030.303
5729.1193
5151.2163
594.21574
26.314173
17.515749
19.458041
16.936369
14.603615
19.211313
16.772255
16.018227
16.186368
26.164645
31.446956
45.15853
37.254657
45.279353
63.693601
90.178709
984.92345
5647.0996
5114.4008
569.85047
26.114472
16.786904
19.601518
16.635433
18.667362
18.945517
16.70404
21.953398
17.774383
29.854139
36.229445
48.742422
51.227025
60.698591
57.337152
101.50203
957.67738
5559.3724
5084.6529
527.44475
20.526592
14.366478
18.229407
14.70298
13.566751
19.070709
13.861502
21.707249
22.413552
23.260813
33.198417
46.614981
51.624554
62.722025
54.547477
94.660207
920.8764
5472.7864
5060.5373
512.23262
20.23902
14.377402
13.545357
11.297048
12.065101
12.214709
11.360303
17.162533
24.386627
26.688001
30.431748
33.180595
42.507109
50.351107
50.356127
91.555065
901.90805
5404.2737
5036.195
498.14213
17.466951
8.1403093
13.129287
12.960427
12.895084
14.076077
12.933507
15.127891
23.459222
23.723336
29.950522
32.416137
43.760384
53.191046
51.750312
96.680852
877.37733
5362.052
5015.6751
479.01236
18.696354
8.61235
12.913073
13.338791
13.223347
14.536151
12.426961
10.715138
17.884117
28.440721
22.939227
34.792257
46.470309
44.200658
59.244812
81.211551
870.15762
5326.2996
4997.2783
463.65557
16.156026
6.3273587
7.5308318
8.0404656
8.6430083
12.357161
14.403874
11.988586
16.309424
16.963295
23.226061
23.663902
38.629094
27.209936
58.717368
69.7886
835.27633
5289.3461
4977.8726
453.50968
17.507198
8.4093771
8.8570845
8.5125905
9.1113009
8.2913678
12.889718
13.143893
18.040047
18.947038
24.728676
19.522071
36.754923
24.720978
58.592847
89.918622
835.52683
5255.9925
4958.5427
438.07513
14.696459
8.3386052
10.063764
9.3605386
8.1531085
12.123477
10.481132
9.1585999
17.103741
15.551514
28.695059
28.694209
36.336322
32.015773
55.082597
79.037206
834.84533
5218.5545
4943.6665
413.4715
13.128825
8.4640188
8.7928484
7.4405811
5.8483878
9.4619375
8.0699912
7.7278303
17.182742
14.979862
25.452316
29.39077
31.371913
28.268916
39.854573
69.10622
793.51702
5179.4642
4930.6403
405.74419
15.556282
8.5343768
8.4762963
8.9682809
7.1689923
9.7868278
10.877086
9.12981
14.681897
10.6394
18.922077
17.114087
27.983847
16.402408
37.337193
63.2045
759.45748
5142.2498
4917.7862
394.21685
13.103481
5.1232094
5.8911407
7.4129563
6.8364025
7.0797205
7.4144274
8.2032224
12.91603
7.7736247
20.743855
17.357615
27.377305
14.47968
36.23981
53.971912
763.69269
5103.8655
4905.5837
370.98652
12.291044
5.8319578
5.804629
6.2001066
5.8987883
6.5670234
7.507249
5.6948012
13.505518
10.16504
16.261423
14.628935
20.900699
16.769151
31.136212
61.801442
730.67593
5063.9165
4896.4319
364.61022
10.715141
5.0994257
5.2015289
5.3091122
5.8112273
4.111937
7.4007249
5.4351672
12.370341
8.002348
15.633068
11.224397
21.813165
15.747656
30.864267
61.123939
713.8982
5025.0221
4885.8948
359.00242
11.156722
4.566161
5.1928996
3.9555412
4.0448998
3.9937024
5.1147101
4.2178379
11.52795
6.0788836
15.499214
13.18609
20.147118
21.28842
30.255861
59.69596
663.36207
4989.0192
4876.4819
341.35662
11.559759
5.5590872
5.4162435
4.6482489
5.4808781
4.7781602
5.5229618
5.6851779
9.0321883
9.5926743
14.355335
15.050242
18.811275
25.618653
24.493223
54.465615
658.98752
4955.9384
4868.9167
335.15696
10.494706
5.4620365
5.6990258
5.0616752
5.0987468
5.8999917
4.1641654
4.0690242
8.126678
7.1253959
14.218755
10.875805
13.168113
20.721822
26.504196
50.228832
632.44004
4926.0452
4860.4986
329.12014
10.073617
2.9962346
3.6980078
3.2323607
4.8301092
4.2669245
5.0892313
5.2486068
5.1964618
5.5585869
10.487745
10.3078
15.428141
13.022675
26.777449
56.045593
608.85261
4897.5156
4853.0167
313.95312
9.5131563
4.8598171
4.2309385
3.8188434
5.4984167
5.1527562
4.3881245
3.5620551
6.2668083
4.6561471
8.6366203
8.5982289
14.837331
10.152245
21.177803
54.412662
598.95573
4875.8632
4846.1912
301.79895
9.9569923
3.9280369
3.6438426
3.7982611
4.1112891
3.7846676
5.6679445
5.510524
7.9730326
5.2589377
8.2955039
7.3502209
13.70128
9.259109
16.871677
48.28694
583.81422
4849.8618
4840.9354
294.57301
9.2927781
3.7455106
4.0900237
4.3182072
4.1874305
4.6956598
5.1613636
4.7607929
6.2496918
4.1257869
6.8692257
5.2583766
9.7424645
6.2230279
13.833436
42.68298
586.67739
4834.2856
4834.0907
304.75877
9.8850804
3.3565026
3.00432
2.7317754
3.5221287
3.485776
3.6528256
3.2353395
5.6930275
5.1494198
8.2680645
7.1068278
10.035751
8.186472
14.086291
34.482966
497.81512
4824.5547
6432.676
2429.6849
709.88669
173.81934
66.659601
36.585213
28.514429
23.245206
18.169754
16.646196
17.133137
16.93021
20.546108
29.394121
38.870659
60.416979
103.19747
131.21408
1210.2022
5983.2465
6275.8782
1999.6672
446.46132
91.286874
37.778693
19.048345
20.099965
13.900294
13.993725
9.3808569
19.225519
16.232249
15.241861
21.366987
44.34547
48.136022
93.621236
120.08421
1201.609
6017.2796
5873.735
1508.5418
243.33178
49.305167
19.134233
19.339372
20.251394
19.589096
18.158298
7.9784883
15.111218
15.605037
15.730303
20.915178
43.286266
35.172019
80.129382
106.74556
1167.5237
6007.2557
5579.5599
1091.4227
114.94122
31.320107
20.217763
21.011341
17.076921
18.395315
22.866194
10.064558
11.687772
13.360271
38.191482
21.206225
41.758837
45.271599
58.591522
101.51408
1183.7279
6011.2761
5416.6269
889.07345
70.975915
16.732968
15.975507
15.405602
21.051938
20.464853
16.375095
14.819082
11.890634
21.971797
40.629072
30.602604
61.801897
40.947989
44.635313
153.14812
1280.9424
5951.6314
5317.4336
752.3135
42.814103
12.92373
20.604891
15.913289
24.658588
20.223295
26.479171
26.97555
42.131626
34.266654
51.142107
28.494042
57.260443
42.061131
54.33513
117.46208
1175.4864
5874.6425
5255.1865
675.85001
32.183708
8.1569296
18.136742
12.401899
23.408509
16.906533
18.436153
23.700696
27.090182
25.079201
34.480023
36.291088
32.214943
40.556278
56.292059
117.31973
1121.143
5793.6337
5211.4054
647.24471
24.921832
7.5262779
15.917196
12.502984
22.264587
17.129573
14.748324
23.249424
32.271028
22.22581
29.424584
41.81797
31.904434
50.083652
58.980973
93.243833
1047.4871
5711.118
5161.138
608.19996
23.581914
6.8884855
10.853898
7.8119236
13.712674
17.822398
12.574026
15.278816
25.525251
24.577178
37.461741
46.330158
31.660164
68.223299
61.710379
75.25519
952.33002
5637.4695
5123.5347
565.8838
23.425496
10.674355
12.689493
10.703606
15.722809
18.239271
8.209309
8.5589502
15.414935
21.59629
35.694716
46.561931
32.419513
52.575012
55.281249
85.61955
926.16512
5566.9674
5094.241
536.07356
20.184386
9.9992296
13.222169
12.904715
14.905028
15.731864
12.624313
15.442901
15.909605
22.799199
26.127745
36.813866
34.751658
54.720316
45.307561
109.44138
922.32415
5496.2394
5069.1335
515.93576
18.146972
10.574211
13.584903
12.726076
10.365665
11.707576
11.968089
15.995845
15.725671
25.135062
24.791972
23.39886
32.69292
47.787053
48.592067
109.57303
936.60144
5429.8345
5044.8762
506.25125
18.165945
6.869629
9.8905218
10.25053
5.8294854
9.4245093
14.855982
20.665701
17.407033
28.270183
28.68223
20.749193
29.15799
33.644922
49.705405
88.22977
885.26659
5377.0191
5023.8937
480.14359
15.8099
4.9488633
7.9815202
5.7043223
9.5658501
11.590797
14.690869
18.206987
16.684847
27.118049
30.337298
28.399204
29.237597
35.399462
47.150209
94.712182
869.63873
5339.9541
5004.9782
467.04864
15.349528
8.3852438
9.6033992
8.7044027
11.082727
11.440828
10.189032
16.898167
19.624457
17.038883
31.103919
25.171007
38.066746
35.31621
49.281608
91.185672
880.65901
5302.762
4984.1827
451.14448
15.480737
8.1540187
9.3501036
10.154434
10.052195
10.856512
10.798401
8.641547
14.593271
14.11741
30.394573
15.853067
36.922875
30.41458
48.818302
79.254834
850.577
5262.9283
4965.1019
436.81456
13.228065
4.2868475
5.1518041
7.0747224
6.5365968
9.0599381
9.8327712
9.8048112
17.163368
15.057956
27.599015
21.587402
33.153047
22.087393
46.783751
72.487432
821.48215
5222.9808
4949.9492
419.02551
13.249254
5.2953158
4.2425772
4.6956056
7.2943011
5.6357987
7.9214422
8.136492
13.413609
13.878253
25.39367
23.847856
31.290565
16.549919
43.515929
62.773044
772.33062
5183.7282
4935.7582
409.38036
13.469654
6.9871267
6.6870606
6.5471449
8.4050786
8.3614274
8.5964799
8.5495337
12.96667
7.8113632
20.44393
17.249049
28.278424
13.511346
40.460176
55.120039
782.17981
5147.4688
4921.7256
399.82044
12.980574
4.0975411
4.7748349
5.2690955
4.9926997
8.0387212
6.0087014
5.7765945
10.94878
7.1556557
20.019475
11.338361
27.335063
12.005296
36.396712
62.60647
770.12548
5109.3393
4910.5961
381.35427
11.205096
3.005349
3.2646564
5.2368122
4.5117089
7.1912528
5.1128492
8.3132171
11.192688
12.437391
16.216553
11.279267
22.621568
12.103564
34.7425
64.279668
738.57851
5068.1583
4899.8431
368.06164
10.222054
3.017325
4.9591191
5.8795504
4.3458728
5.0002958
5.6250649
4.4919734
7.6854977
11.779327
17.178177
9.121168
22.91621
13.644876
30.24519
64.878072
705.15082
5028.9913
4888.7791
365.52152
11.147298
4.3312837
5.0604043
5.7263358
3.2369558
4.7370796
5.345076
4.7223578
7.393537
6.0705555
15.065371
12.971587
21.82594
14.891755
26.707218
56.742801
671.16746
4992.575
4879.6081
346.22911
10.311292
4.8394046
4.7241096
4.8441108
4.2126829
3.2323804
4.3972448
3.4910225
9.0350663
9.6960599
8.1982242
10.564856
15.938818
20.484656
24.054792
58.934441
661.94374
4959.61
4871.4754
338.18478
9.2940419
3.6338479
3.2499264
3.668944
4.5698676
2.8580154
3.9280601
5.143299
8.3961184
7.5279559
7.4816743
13.951241
14.733451
18.91644
20.560915
57.742045
626.57418
4929.2242
4863.5736
329.95425
9.4728658
4.1301065
3.337141
2.9405919
4.2139062
3.7806019
3.5090513
3.7581175
5.1354789
8.9018032
7.9835859
13.161174
14.785097
18.038147
19.884989
54.144315
608.60516
4900.5624
4856.07
314.28042
9.6013076
3.1890177
4.2181112
2.6237579
4.2701335
4.4131299
3.8139745
4.0283646
5.2949513
6.9033467
9.7059239
9.5037352
13.197242
13.484715
21.782313
50.579552
584.51735
4878.6225
4849.3321
309.15637
9.7571305
3.9848175
3.881931
3.609164
3.56048
3.44517
3.8460563
2.8384194
6.2512738
4.9770055
9.1045935
6.3816259
10.34897
8.6868595
19.129784
46.822147
583.38347
4852.9215
4843.7776
296.70347
9.1503793
3.1687941
2.8619878
3.2543002
3.1839854
3.1299745
3.98669
3.2767905
5.2307745
3.1754676
6.7299221
3.8422433
8.4895072
5.2924702
12.711211
40.220779
583.66809
4835.9248
4836.7632
307.01282
9.4634252
3.070353
2.5121925
2.5430749
2.9752875
3.1405259
3.0795248
2.8087636
3.954946
4.0077904
7.3094416
5.6203331
9.4287643
7.6199618
13.118604
34.105055
509.66296
4832.001
6458.9987
2495.9335
715.1491
160.82375
56.668318
33.470716
38.503148
22.758092
21.077571
12.34175
15.486771
19.067291
17.137144
23.470677
50.684728
68.593046
107.67575
162.58135
1307.7465
5983.6147
6289.8292
2073.4072
464.30349
109.49392
31.397789
22.10956
22.20378
21.957766
13.539481
8.3427967
14.491259
11.442913
16.52712
23.502403
38.285696
67.768698
87.162876
122.24718
1173.0332
5992.9781
5883.5245
1550.5014
254.87402
54.023945
28.092111
23.974761
14.270251
21.11736
9.8321789
11.006393
30.229019
12.564733
20.934822
20.703043
39.456261
51.060765
97.365424
118.77103
1134.5691
6031.0325
5591.0893
1116.4969
122.83153
34.671206
26.236545
23.904801
20.183698
18.449642
10.306755
9.9817714
38.265241
18.031395
22.282894
17.294101
42.881231
71.197602
65.932968
127.99039
1335.2643
5986.3368
5429.4177
866.05706
66.022637
16.303374
20.598674
22.573527
25.180198
20.649252
13.827106
15.484454
24.334502
33.428975
28.404819
26.898051
59.149871
54.779709
51.046057
109.73757
1148.9763
5911.2218
5334.2525
776.94649
40.612952
15.457041
16.213623
18.251078
26.434715
23.64677
19.083606
24.112062
20.81659
42.537002
37.364192
25.545204
69.107523
50.646959
45.572321
103.57425
1164.515
5862.232
5270.4304
694.54705
29.114215
12.51696
16.128948
13.116565
18.017098
17.273611
22.383896
20.958834
32.054774
36.319932
40.04703
48.994276
57.68993
59.273251
49.719846
94.904586
1087.7974
5796.7297
5223.7388
647.79497
26.247448
12.402585
10.655059
17.227052
12.154264
13.464929
17.52505
14.568629
23.509128
33.173191
32.708267
38.720279
35.285174
56.935449
72.076505
97.246922
1084.7053
5727.1613
5178.9107
629.89882
28.315602
5.7066302
12.769444
16.08646
8.1636498
11.01865
14.284344
10.662681
20.647438
27.519866
26.443871
45.195236
39.874605
65.096728
72.825731
91.054434
990.48309
5657.1661
5139.1606
579.72089
21.203673
6.6504221
13.344954
11.299198
6.8301597
10.01899
17.264069
14.237578
16.267577
22.165877
26.754927
41.19294
49.850094
59.139146
56.618883
96.286348
983.56865
5586.9656
5108.6676
551.32123
19.409634
6.2694232
11.683753
9.5350238
9.5158475
12.579347
14.803204
18.950063
18.199885
24.172642
35.102164
39.298783
47.174808
46.420939
40.121618
96.121198
937.41519
5508.0157
5081.9274
532.4127
19.1009
5.7252604
11.580656
8.5987173
10.264222
11.236484
12.183381
15.92075
16.06997
18.050172
29.793127
31.551192
40.238688
39.823908
45.112031
87.162211
915.42546
5437.2663
5057.8932
511.4294
16.841428
8.5277694
11.534379
10.929372
12.107989
13.458702
13.308418
12.004187
12.312262
26.582561
23.45179
21.064576
28.814979
29.123377
50.566456
74.232057
875.4423
5387.1615
5035.6935
499.43078
17.410548
8.8006192
10.660004
10.792604
12.821704
13.030341
9.3732315
18.859781
11.099971
22.034334
21.645561
22.524608
33.679343
30.282489
54.319851
88.145657
896.77143
5353.1714
5014.3445
477.16368
14.812416
5.1997386
5.8286568
5.8241147
8.9360648
8.0491871
9.621423
13.62581
13.772572
13.095752
21.147862
20.052222
38.92773
28.286673
55.454958
87.524112
885.30809
5313.5438
4992.8466
468.03591
17.385393
6.9046883
7.9675345
6.8400342
7.3089947
9.1784838
11.195464
14.105296
15.163093
10.062537
23.405821
16.014305
35.17309
21.534954
49.015501
79.630556
843.52943
5271.9129
4973.9515
446.85329
13.909952
4.5291817
8.8776267
8.7136162
9.1160245
6.4134846
9.3198757
10.518104
14.211647
16.489091
24.460664
18.272383
31.193766
21.703412
43.924003
77.61716
795.18632
5232.8049
4957.9417
431.50356
12.721472
3.8629693
6.6527465
5.1751858
6.5773034
8.5159416
7.3809625
8.062365
15.756522
11.536481
21.724169
13.532011
31.078832
18.87978
40.322786
69.146251
811.92007
5193.7518
4942.6168
414.90765
13.77177
3.95802
5.0380751
5.012693
5.1694016
8.1702773
9.0668644
4.8786501
12.799412
9.3673035
21.059743
10.906439
29.716799
16.683229
37.725656
59.611247
796.34947
5155.9734
4928.8754
401.79068
12.079465
5.0631472
5.6787117
6.4797918
4.7912814
6.2997076
5.945777
4.2371946
13.257078
8.5090825
15.494231
11.469371
27.691679
16.586016
35.816252
65.185713
749.64502
5114.2513
4917.3102
387.21333
11.046233
3.3764353
5.1800843
5.2157707
5.5594793
4.7682864
7.2000639
5.8109466
13.089415
12.66036
16.561737
18.380835
25.627981
16.565692
32.584549
61.171983
732.4665
5073.7738
4906.2343
380.25197
10.602831
4.5137968
5.2140319
3.8640417
4.8637989
4.1856697
6.857414
4.3234929
9.2182754
7.6725142
10.454233
11.531837
20.526652
15.239287
29.888096
49.980282
707.25442
5036.0075
4895.403
367.67983
10.804058
4.2457348
3.576007
4.3385496
4.5959755
2.8848093
6.5662445
4.9834058
9.0611233
6.3638651
12.64321
8.0288402
19.466232
10.500342
26.340784
56.928898
696.58801
5000.4852
4885.7754
351.08379
10.887051
4.5135469
3.8216813
4.0006632
5.1055433
5.1221304
4.8047066
2.5151763
8.5418499
5.0446874
11.728488
9.4216708
17.909154
9.6139583
24.457662
58.722381
652.57901
4967.2343
4877.7203
346.12148
9.8959426
2.565484
3.8443447
4.7166876
4.6538468
3.4131785
4.6239572
2.336894
5.5480757
7.6832304
10.887384
14.746375
13.822818
13.390279
21.598605
58.011328
637.92849
4936.412
4869.5965
335.47744
9.8407447
2.3823934
4.0074054
3.8143348
3.4360205
2.642125
3.1250133
5.0629616
6.8834556
6.3701125
8.5267319
14.17273
12.489682
18.288881
17.982483
55.828194
618.49473
4907.031
4861.6391
327.65325
10.270621
2.5659524
3.0804993
2.8346498
2.8865021
3.7609636
4.735221
5.3035311
5.9011073
6.4176638
9.6597389
9.1585901
13.637938
12.480038
20.082844
51.100672
592.50523
4885.2589
4854.7683
314.16853
9.354682
2.1850045
3.1455814