/*--------------------------------*- C++ -*----------------------------------*\
| =========                 |                                                 |
| \\      /  F ield         | OpenFOAM: The Open Source CFD Toolbox           |
|  \\    /   O peration     | Version:  1.7.x                                 |
|   \\  /    A nd           | Web:      www.OpenFOAM.com                      |
|    \\/     M anipulation  |                                                 |
\*---------------------------------------------------------------------------*/
FoamFile
{
    version     2.0;
    format      ascii;
    class       volScalarField;
    location    "0.0045";
    object      p;
}
// * * * * * * * * * * * * * * * * * * * * * * * * * * * * * * * * * * * * * //

dimensions      [1 -1 -2 0 0 0 0];

internalField   nonuniform List<scalar> 
206988
(
102934.41
102934.45
102933.97
102933.83
102933.19
102931.62
102929.31
102928.78
102927.71
102921.52
102919.53
102914.88
102911.3
102907.71
102909.17
102906.82
102902.63
102900.74
102910.24
102921.07
102910.96
102910.42
102910.46
102909.7
102909.37
102908.02
102907.88
102905.01
102904.32
102899.4
102898.62
102891.7
102891.42
102882.76
102892.66
102886.74
102885.24
102887.4
102883.87
102884.34
102886.17
102885.65
102885.9
102884.7
102885.24
102882.79
102883.62
102879.97
102882.49
102874.78
102877.18
102867.8
102870.27
102863.99
102867.15
102861.89
102862.84
102860.04
102858.6
102859.37
102861.38
102860.69
102861.45
102860.02
102861.41
102858.85
102859.67
102856.09
102860.39
102853.25
102853.23
102844.09
102847.56
102839.09
102844.16
102837.44
102838.71
102836.93
102836.94
102834.55
102834.95
102834.56
102834.86
102833.97
102834.66
102832.89
102834.77
102830.37
102835.59
102825.74
102834.65
102817.11
102830.14
102808.8
102827.15
102814.99
102818.97
102810.16
102813.55
102809.8
102807.57
102806.92
102807.83
102806.34
102808.86
102806.68
102812.45
102802.67
102813.25
102789.91
102821.3
102784.74
102805.92
102787.35
102802.64
102797.86
102784.09
102778.77
102787.12
102784.04
102778.09
102777.52
102778.18
102776.85
102779.34
102775.69
102783.09
102773.48
102785.62
102768.87
102796.97
102764.06
102776.76
102770.6
102775.33
102765.47
102770.13
102765.69
102767.94
102765.65
102751.6
102751.14
102751.77
102750.92
102753.12
102751.7
102772.87
102737.62
102755.39
102744.47
102766.52
102717.05
102772.92
102748.21
102759.05
102751.64
102750.97
102746.74
102747.85
102746.03
102729.09
102728.28
102729.34
102728.66
102729.02
102729.46
102733.71
102728.89
102732.91
102721.65
102751.14
102711.23
102743.67
102720.03
102721.37
102721.97
102726.18
102724.8
102725.7
102724.46
102704.91
102704.18
102705.4
102703.33
102706.98
102704.33
102705.43
102706.53
102707.89
102698.83
102721.71
102688.16
102708.26
102687.65
102706.58
102697.52
102701.94
102699.73
102700.56
102699.56
102681.4
102679.29
102681.2
102680.3
102683.52
102680.3
102681.62
102682.92
102681.46
102665.77
102706.17
102648.77
102698.68
102673.7
102681.47
102674.71
102674.4
102674.52
102675.22
102674.57
102658.85
102656.59
102657.48
102656.67
102656.72
102650.4
102679.77
102647.9
102651.1
102625.52
102698.79
102643.33
102657.73
102651.47
102654.6
102651.82
102651.9
102650.97
102651.11
102650.49
102637.22
102636.35
102638.7
102627.79
102631.7
102635.63
102641.8
102614.81
102655.36
102620.72
102647.71
102630.28
102630.67
102627.2
102628.78
102627.57
102627.99
102627.14
102627.19
102626.66
102613.95
102611.6
102617.55
102606.67
102610.48
102606.31
102609.51
102607.79
102628.24
102605.1
102607.62
102602.95
102607.18
102604.85
102606.42
102605.14
102605.58
102604.95
102605.12
102604.65
102587.88
102586.88
102590.14
102584.13
102589.49
102586.07
102586.66
102587.8
102596.37
102581.72
102588.39
102582.68
102586.32
102583.81
102584.97
102583.97
102584.52
102583.96
102584.25
102583.78
102566.69
102562.07
102564.99
102561.88
102569.33
102562.38
102568.53
102562.52
102568.58
102561.72
102567.71
102562.72
102565.86
102563.78
102565.14
102564.27
102564.81
102564.29
102564.42
102564.04
102544.03
102540.85
102543.98
102544.63
102544.71
102543.3
102545.89
102542.41
102546.43
102541.69
102547.39
102543.01
102546.04
102543.87
102545.49
102544.84
102545.37
102544.82
102544.88
102544.52
102526.95
102521.08
102521.36
102524.23
102525.15
102523.42
102525.31
102522.47
102526.46
102521.7
102527.57
102523.35
102526.39
102524.53
102525.81
102525.15
102525.54
102525.16
102525.26
102524.99
102505.78
102501.34
102507.48
102505.37
102505.95
102504.13
102505.78
102503.13
102506.71
102503.04
102508.51
102504.52
102507.48
102505.71
102507.16
102506.54
102506.88
102506.52
102506.6
102506.36
102487.26
102484.96
102490.69
102486.56
102486.98
102485.15
102486.66
102484.02
102487.99
102484.53
102490.35
102486.05
102489.16
102487.53
102489.03
102488.44
102488.83
102488.56
102488.69
102488.49
102469.75
102469.12
102472.96
102468.26
102468.96
102467.58
102469.45
102467.37
102470.78
102467.7
102472.34
102468.36
102471.79
102470.14
102471.57
102471.29
102471.75
102471.54
102471.68
102471.5
102452.06
102451.96
102452.52
102451.55
102452.45
102451.02
102452.87
102450.7
102454.15
102450.59
102455.5
102452.79
102455.43
102454.28
102455.51
102455.23
102455.53
102455.34
102455.44
102455.3
102435.53
102435.31
102435.77
102435.1
102436.02
102434.83
102436.54
102434.64
102437.84
102433.92
102439.18
102436.91
102439.43
102438.64
102439.74
102439.52
102439.91
102439.8
102439.93
102439.82
102419.81
102419.64
102420.07
102419.5
102420.38
102419.4
102421
102419.4
102422.29
102419.6
102423.97
102421.81
102423.8
102423.58
102424.86
102424.81
102425.27
102425.21
102425.36
102425.27
102405.13
102405.11
102405.35
102404.96
102405.75
102404.89
102406.44
102405.06
102407.84
102405.6
102409.76
102408.05
102410.38
102410
102411.19
102411.15
102411.62
102411.59
102411.75
102411.67
102391.67
102391.66
102391.76
102391.6
102392.2
102391.51
102392.97
102391.78
102394.46
102392.58
102396.58
102395.27
102397.61
102397.36
102398.5
102398.52
102398.98
102399
102399.15
102399.09
102379.41
102379.4
102379.47
102379.47
102379.79
102379.41
102380.71
102379.75
102382.29
102380.76
102384.63
102383.65
102385.99
102385.89
102387.01
102387.1
102387.57
102387.61
102387.78
102387.73
102368.48
102368.47
102368.53
102368.57
102368.77
102368.73
102369.74
102369.07
102371.41
102370.26
102373.97
102373.29
102375.62
102375.64
102376.77
102376.91
102377.38
102377.45
102377.61
102377.59
102358.99
102358.99
102359.05
102359.1
102359.28
102359.43
102360.12
102359.86
102361.89
102361.25
102364.62
102364.35
102366.53
102366.72
102367.81
102368
102368.48
102368.56
102368.74
102368.71
102350.98
102350.96
102351.02
102351.08
102351.26
102351.48
102351.96
102352.18
102353.79
102353.71
102356.63
102356.83
102358.82
102359.19
102360.24
102360.47
102360.94
102361.08
102361.17
102361.2
102933.1
102932.97
102932.92
102932.57
102931.4
102930.71
102927.46
102926.47
102927.03
102921.97
102917.28
102914.31
102911.53
102910.07
102907.49
102906.81
102904.4
102903.05
102908.58
102903.8
102910.36
102909.8
102909.95
102909.18
102908.92
102907.59
102906.94
102904.57
102904.51
102898.73
102898.41
102891
102892.63
102883.05
102886.98
102885.62
102883.67
102883.09
102883.12
102882.63
102885.59
102885.06
102885.34
102884.06
102884.47
102881.85
102880.61
102879.44
102881.7
102871.15
102876.27
102867.57
102870.64
102864.27
102868.45
102862.76
102862.79
102860.4
102861.61
102857.07
102860.63
102859.8
102860.55
102857.79
102860.05
102858.81
102857.42
102855.61
102859.27
102850.26
102855.97
102844.14
102852.2
102838.92
102849.9
102831.64
102843.11
102834.09
102841.94
102835.77
102834.78
102834.24
102834.85
102833.25
102834.9
102832.18
102833.98
102829.16
102840.29
102824.68
102835.78
102817.05
102835.65
102829.15
102810.44
102792.86
102819.57
102799.98
102815.03
102806.24
102806.95
102806.5
102807.26
102804.97
102809.3
102805.78
102817.9
102801.81
102813.72
102791.52
102820.01
102784.73
102810.77
102788.67
102797.21
102785.43
102791.12
102783.19
102786.92
102784.97
102777.49
102776.68
102777.03
102772
102780.45
102769.06
102782.31
102772.18
102788.36
102764.63
102802.31
102778.98
102769.4
102771.74
102758.26
102756.09
102762.75
102767.02
102764.03
102765.12
102750.97
102750.35
102750.95
102748.08
102749.17
102744.82
102761.33
102747.94
102758.4
102743.48
102780.35
102724.06
102772.21
102747.49
102745.49
102745.52
102745.35
102745.93
102745.61
102745
102728.6
102727.99
102729.31
102728.08
102731.95
102723.67
102725.71
102725.16
102731.2
102714.16
102753.52
102716.58
102734.92
102727.15
102724.52
102720.95
102719.09
102730.3
102727.62
102725.7
102704.45
102703.7
102705.44
102702.12
102710.26
102698.15
102710.51
102702.75
102708.83
102694.72
102733.83
102677.57
102711.04
102692.81
102704.91
102699.9
102700.77
102699.58
102700.03
102699.06
102680.44
102679.36
102680.68
102680.83
102682.4
102677.45
102689.89
102679.58
102691.37
102662.27
102699.74
102657.13
102686.7
102674.06
102676.86
102675.44
102677.66
102675.35
102675.48
102674.49
102657.53
102656.33
102657.38
102656.19
102657.18
102654.3
102662.35
102657.52
102650.02
102637.25
102691.77
102632.97
102653.52
102651.16
102652.45
102651.08
102651.73
102650.59
102650.74
102650.06
102635.88
102634.56
102636.22
102633.68
102632.57
102626.18
102641.55
102619.47
102622.35
102616.11
102664.16
102610.91
102625.82
102625.92
102628.05
102626.8
102627.4
102626.09
102625.14
102625.31
102611.99
102610.33
102612.5
102611.2
102611.87
102608.36
102609.38
102607.06
102621.83
102603
102617.32
102602.53
102606.42
102604.56
102606.07
102604.24
102603.65
102603.85
102604.23
102603.84
102588.25
102584.83
102588.95
102586.69
102587.15
102584.19
102586.4
102585.06
102592.8
102582.35
102586.7
102582.92
102586.85
102583.16
102582.66
102582.97
102583.57
102582.36
102584.08
102583.13
102565.04
102561.86
102565.37
102564.44
102565.59
102561.91
102567.44
102560.99
102567.91
102560.97
102567.53
102562.38
102565.62
102563.46
102564.72
102563.96
102564.87
102564.49
102564.44
102563.92
102543.7
102540.71
102544.48
102544.62
102544.02
102542.89
102545.64
102541.66
102546.44
102541.22
102547.03
102542.53
102545.51
102543.69
102544.92
102545.26
102547.12
102545.43
102545.06
102544.55
102525.65
102518.75
102525.24
102523.37
102524.36
102522.72
102524.72
102521.88
102526.08
102520.97
102527.33
102523.08
102526.06
102524.11
102525.4
102524.83
102525.3
102524.81
102524.89
102524.56
102505.04
102500.61
102509.22
102504.42
102505.18
102503.45
102504.99
102502.4
102506.19
102502.55
102508.22
102504.16
102507.07
102505.24
102506.85
102506.42
102506.55
102506.05
102506.11
102505.87
102486.57
102484.9
102492.39
102485.09
102485.94
102484.35
102485.72
102481.55
102487.16
102484.26
102489.6
102485.92
102488.88
102487.46
102488.6
102488.04
102488.42
102488.12
102488.24
102488.02
102469.7
102469.78
102474.19
102466.06
102467.95
102466.76
102468.89
102466.69
102470.22
102467.42
102472.46
102469.5
102471.98
102470.92
102471.81
102471.15
102471.46
102471.18
102471.29
102471.1
102451.76
102451.46
102452.03
102451
102451.96
102450.5
102452.37
102450.25
102453.61
102450.47
102455.11
102452.79
102455.06
102454.1
102455.77
102455.82
102455.42
102455
102455.04
102454.86
102434.94
102434.63
102435.17
102434.43
102435.4
102434.24
102435.96
102434.16
102437.2
102435.03
102438.9
102436.51
102438.7
102438.15
102439.27
102439.09
102439.43
102439.32
102439.42
102439.31
102419.26
102419.11
102419.53
102418.97
102419.81
102418.87
102420.43
102418.92
102421.62
102419.31
102423.5
102421.05
102421.21
102422.68
102424.32
102424.32
102424.75
102424.71
102424.86
102424.76
102404.63
102404.62
102404.81
102404.48
102405.22
102404.38
102405.93
102404.54
102407.35
102405.1
102409.29
102407.49
102409.74
102409.42
102410.76
102410.66
102411.11
102411.06
102411.23
102411.14
102391.04
102391.05
102391.12
102391.01
102391.55
102390.9
102392.36
102391.18
102393.87
102391.97
102396.01
102394.67
102396.99
102396.78
102397.93
102397.94
102398.42
102398.42
102398.58
102398.52
102378.84
102378.84
102378.89
102378.91
102379.18
102378.84
102380.14
102379.18
102381.72
102380.19
102384.06
102383.08
102385.4
102385.31
102386.47
102386.53
102387.01
102387.04
102387.21
102387.16
102367.95
102367.95
102368
102368.05
102368.23
102368.2
102369.21
102368.53
102370.87
102369.72
102373.44
102372.74
102375.09
102375.08
102376.24
102376.35
102376.83
102376.89
102377.06
102377.03
102358.38
102358.38
102358.45
102358.5
102358.68
102358.83
102359.51
102359.27
102361.29
102360.65
102364.04
102363.76
102365.96
102366.13
102367.24
102367.42
102367.91
102367.98
102368.17
102368.14
102350.39
102350.39
102350.44
102350.5
102350.68
102350.9
102351.37
102351.59
102353.2
102353.13
102356.05
102356.25
102358.25
102358.59
102359.66
102359.89
102360.36
102360.5
102360.6
102360.63
102933
102933.64
102932.45
102932.44
102931.38
102928.71
102933.92
102932.01
102926.34
102922.76
102924.38
102915.83
102912.46
102909.57
102903.97
102905.28
102905.15
102902.92
102903.92
102902.61
102909.11
102908.56
102908.32
102907.73
102907.54
102907.05
102907.65
102904.49
102904.91
102898.89
102899.33
102892.47
102892.18
102887.02
102888.02
102885.28
102884.42
102883.69
102882.02
102881.5
102884.54
102884.1
102884.37
102883.67
102884.25
102883.24
102885.63
102879.75
102882.75
102877.06
102878.76
102867.91
102871.49
102864.5
102866.26
102861.01
102861.06
102852.09
102855.71
102852.28
102858.34
102859.6
102860.91
102861.23
102859.82
102856.87
102856.48
102853.16
102857.27
102848.15
102857.73
102840.24
102849.4
102839.35
102840.72
102834.45
102839.3
102836.79
102832.68
102831.63
102833.69
102833.69
102833.73
102832.13
102834.44
102833.14
102827.4
102824.91
102824.99
102820.65
102838.03
102809.08
102833.48
102810.6
102819.84
102805.51
102812.97
102805.91
102809.6
102805.23
102805.79
102804.6
102806.05
102803.22
102805.6
102800.26
102800.59
102796.65
102809.76
102785.06
102819.31
102787.54
102809.15
102783.51
102799.61
102785.51
102792.2
102785.49
102787.28
102784.98
102779.52
102778.61
102777.2
102780.26
102779.35
102779.86
102781.99
102773.05
102800.41
102789.41
102773.21
102753.77
102784.71
102764.07
102775.56
102760.08
102769.77
102764.16
102765.47
102763.81
102750.91
102750.67
102751.19
102749.01
102751.47
102746.19
102754.18
102744.91
102757.38
102749.08
102792.49
102709.12
102761.45
102742.28
102743.81
102751.45
102750.69
102746.36
102745.95
102744.07
102727.57
102727.38
102727.99
102728.05
102726.56
102725.44
102729.41
102722.03
102723.91
102679.6
102773.74
102720.89
102735.23
102715.56
102723.85
102722.72
102720.35
102721.02
102722.1
102720.87
102703.12
102702.16
102703.64
102698.62
102715.81
102700.66
102712.57
102697.36
102721.03
102682.13
102723.4
102673.76
102705.63
102692.26
102702.47
102697.51
102699.2
102697.44
102698.01
102696.92
102678.75
102677.98
102680.01
102677.38
102696.29
102666.13
102683.95
102671.25
102698.77
102667.75
102677.97
102666.98
102681.53
102670.09
102674.38
102673.36
102673.95
102673.32
102673.5
102672.94
102655.8
102654.49
102655.77
102655.86
102657.16
102653.96
102660.03
102655.54
102672.36
102630.81
102660.62
102645.8
102651.76
102646.35
102650.48
102649.52
102650.14
102649.62
102650.35
102649.7
102633.03
102632.44
102633.14
102631.48
102632.6
102632.71
102635.45
102625.95
102644.22
102625.18
102644.51
102626.7
102629
102625.61
102627.42
102626.84
102627.65
102627.31
102629.16
102627.72
102608.87
102607.61
102609.56
102603.99
102608.55
102603.69
102607.1
102602.37
102617.3
102607.86
102615.89
102604.81
102607.54
102604.91
102606.57
102606.16
102607.71
102606.33
102606.35
102605.74
102585.58
102583.79
102588.65
102578.53
102588.8
102581.93
102584.36
102581.94
102589.7
102582.93
102594.33
102584.03
102587.02
102584.62
102587.8
102585.24
102585.72
102585.7
102585.1
102584.66
102561.96
102558.18
102562.85
102569.48
102564.78
102563.15
102565.41
102560.79
102564.9
102560.82
102567.86
102562.32
102565.24
102562.94
102564.25
102562.93
102562.88
102562.18
102562.71
102562.58
102540.55
102538.72
102550.06
102535.65
102543.97
102542.96
102543.97
102540.07
102543.53
102539.35
102545.9
102541.97
102544.66
102542.3
102543.4
102541.55
102541.22
102541.62
102542.82
102542.9
102523.33
102521.62
102523.77
102522
102523.27
102521.24
102523.55
102520.49
102523.71
102517.46
102526.07
102522.18
102524.93
102522.38
102523.75
102522.83
102523.2
102522.51
102522.4
102522.16
102504.66
102499.82
102505.3
102503
102503.8
102502.03
102503.85
102501.46
102504.92
102500.89
102507.64
102503.25
102505.69
102503.81
102504.42
102504.02
102504.38
102504.38
102504.47
102504.26
102485.43
102483.1
102488.64
102484.62
102485.08
102483.62
102485.73
102485.36
102487.22
102482.75
102488.31
102484.89
102487.65
102486.05
102487.13
102486.43
102486.97
102486.66
102486.8
102486.62
102467.86
102466.95
102470.76
102466.28
102466.99
102465.68
102467.69
102465.61
102469.33
102465.04
102470.82
102467.21
102470.03
102468.94
102470.12
102469.54
102470.05
102469.74
102469.94
102469.73
102449.99
102449.89
102450.49
102449.51
102450.42
102449.06
102450.93
102448.79
102452.33
102448.68
102453.91
102450.5
102453.47
102452.52
102453.14
102452.18
102453.25
102453.3
102453.48
102453.37
102433.4
102433.16
102433.65
102433
102433.94
102432.78
102434.58
102432.69
102435.98
102432.77
102437.54
102435.08
102437.71
102437
102437.84
102437.54
102437.97
102437.85
102437.94
102437.84
102417.76
102417.6
102418.03
102417.46
102418.4
102417.34
102419.08
102417.41
102420.75
102418.01
102422.25
102420.55
102425.13
102422.64
102423.27
102422.95
102423.31
102423.25
102423.35
102423.26
102403.08
102403.06
102403.28
102402.92
102403.69
102402.86
102404.41
102403.06
102405.88
102403.63
102407.8
102406.2
102408.89
102408.24
102409.28
102409.13
102409.6
102409.53
102409.69
102409.6
102389.52
102389.51
102389.62
102389.46
102390.06
102389.38
102390.84
102389.66
102392.37
102390.45
102394.57
102393.15
102395.73
102395.32
102396.42
102396.43
102396.9
102396.89
102397.05
102396.99
102377.28
102377.28
102377.34
102377.35
102377.63
102377.31
102378.57
102377.66
102380.2
102378.63
102382.55
102381.52
102383.94
102383.79
102384.93
102384.98
102385.48
102385.5
102385.67
102385.62
102366.38
102366.37
102366.43
102366.47
102366.65
102366.65
102367.63
102366.97
102369.31
102368.16
102371.85
102371.18
102373.55
102373.54
102374.7
102374.79
102375.32
102375.33
102375.53
102375.49
102356.83
102356.82
102356.89
102356.93
102357.12
102357.27
102357.96
102357.7
102359.73
102359.1
102362.45
102362.22
102364.43
102364.59
102365.69
102365.86
102366.36
102366.42
102366.61
102366.58
102348.79
102348.79
102348.85
102348.91
102349.09
102349.31
102349.8
102350.02
102351.63
102351.55
102354.46
102354.7
102356.67
102357.06
102358.07
102358.31
102358.82
102358.92
102359
102359.1
102930.36
102931.31
102929.84
102930.58
102929.07
102931.17
102932.62
102923.39
102923.92
102918.86
102918.83
102912.95
102912.35
102911.92
102913.92
102907.14
102908.24
102897.26
102898.33
102896.58
102907.22
102906.63
102906.43
102904.8
102903.16
102905.67
102910.62
102903.51
102901.18
102897.92
102896
102888.58
102891.78
102889.23
102886.26
102882.91
102877.04
102875.48
102876.25
102872.16
102882.24
102881.71
102881.89
102880.91
102881.35
102879.52
102880.81
102876.83
102877
102870.37
102875.67
102865.84
102870.21
102865.78
102870.72
102869.98
102826.12
102863.1
102845.14
102843.03
102856.68
102856.32
102856.7
102855.47
102857
102854.06
102855.73
102850.99
102852.8
102844.87
102856.49
102838.94
102849.44
102840.87
102838.86
102836.17
102827.2
102827.89
102826.17
102824.87
102831.13
102830.52
102831.49
102829.46
102832.48
102831.51
102824.75
102824.27
102824.77
102813.77
102833.04
102811.13
102827.51
102813.62
102814.76
102806.7
102807.56
102801.87
102801.85
102807.53
102803.66
102803.23
102803.79
102801.37
102802.53
102801.02
102804.27
102790.47
102807.48
102766.29
102827.19
102769.58
102810.8
102784.14
102797.45
102784.29
102788.89
102781.41
102784.59
102781.59
102777.88
102777.39
102778.01
102776.38
102777.87
102777.03
102781.05
102743.47
102802.2
102728.98
102815.04
102762.4
102771.31
102772.98
102770.84
102768.09
102766.86
102761.38
102762.15
102760.3
102751.24
102750.67
102751.59
102750.29
102751.29
102743.23
102767.31
102724.49
102761.37
102731.39
102778.49
102736.98
102750.36
102743.02
102747.01
102740.29
102738.73
102737.67
102739.18
102737.98
102724.54
102723.69
102725.03
102722.92
102726.92
102711.87
102766.98
102699.76
102731.61
102711.32
102734.72
102720.5
102729.6
102716.11
102720.22
102716.31
102718.1
102715.73
102716.66
102715.32
102699.26
102697.56
102700.67
102695.35
102705.24
102706.61
102734.52
102692.75
102737.09
102661.61
102686.41
102685.55
102708.62
102692.87
102695.83
102692.22
102694.31
102692.72
102693.48
102692.44
102675.8
102674.11
102675.84
102677.15
102681.48
102672.28
102679.5
102679.33
102683.94
102648.3
102701.66
102659.55
102668.11
102666.22
102669.74
102669.07
102670.89
102670.2
102670.65
102669.98
102652.72
102651.89
102651.81
102649.91
102660.15
102647.3
102655.48
102644.79
102653.56
102652.23
102673.24
102645.8
102648.27
102645.47
102648.05
102646.88
102648.14
102647.57
102648.45
102647.8
102629.92
102629.31
102630.29
102630.16
102632.26
102630.34
102645.04
102617.65
102596.46
102642.65
102645.23
102627.08
102629.03
102623.9
102625.93
102624.83
102625.66
102625.73
102625.87
102625.29
102605.47
102602.4
102605.58
102600.37
102610.93
102599.16
102616.17
102578.21
102624.5
102605.21
102616.97
102605.05
102606.85
102603.45
102604.73
102603.52
102604.24
102603.69
102603.78
102603.45
102582.97
102579.24
102583.3
102583.13
102582.34
102582.38
102584.85
102576.32
102589.55
102580.37
102588.97
102582.49
102584.36
102581.89
102583.3
102582.04
102582.45
102581.91
102582.05
102581.58
102561.56
102558.5
102565.75
102558.58
102560.07
102556.78
102571.04
102556.12
102562.28
102557.14
102565.74
102560.07
102563.07
102560.72
102562.13
102561.08
102561.66
102561.17
102561.18
102560.76
102540.93
102539.44
102541.04
102540.05
102538.56
102539.11
102541.91
102537.34
102541.69
102537.48
102544.71
102539.45
102542.34
102540.55
102541.47
102540.54
102540.78
102540.21
102540.17
102539.79
102521.86
102520.4
102521.27
102519.27
102520.04
102518.36
102520.23
102517.74
102522.24
102521.15
102526.57
102520.39
102522.81
102521.21
102521.79
102520.82
102521.7
102521.65
102522.25
102521.78
102501.63
102497.27
102504.36
102499.96
102500.72
102499.14
102500.99
102498.55
102502.43
102498.68
102503.83
102500.38
102503.32
102501.49
102500.45
102500.63
102501.91
102501.93
102502.19
102502.01
102482.58
102481.09
102487.39
102480.89
102481.73
102480.4
102482.6
102480.37
102484.05
102479.94
102485.42
102482.18
102484.89
102483.43
102484.31
102483.77
102484.19
102484.01
102484.34
102483.67
102465.62
102465.73
102468.44
102461.81
102463.59
102462.66
102464.72
102462.71
102466.32
102462.56
102467.59
102465.08
102467.7
102466.34
102467.37
102466.82
102467.31
102467.06
102467.31
102467.08
102447.2
102446.9
102447.43
102446.52
102447.43
102446.15
102447.93
102445.96
102449.26
102445.92
102450.98
102447.94
102450.91
102449.64
102450.93
102450.3
102450.79
102450.58
102450.74
102450.62
102430.37
102430.13
102430.63
102429.98
102430.93
102429.82
102431.55
102429.71
102432.78
102429.8
102434.66
102431.86
102434.64
102433.76
102434.97
102434.76
102435.14
102434.97
102435.17
102435.02
102414.69
102414.6
102414.95
102414.45
102415.29
102414.34
102415.99
102414.39
102417.26
102414.56
102419.16
102417.09
102419.85
102419.03
102420.19
102419.88
102420.39
102420.23
102420.4
102420.29
102400.02
102400.01
102400.24
102399.86
102400.64
102399.81
102401.39
102399.99
102402.85
102400.52
102404.76
102403.07
102405.72
102405.16
102406.25
102406.14
102406.54
102406.52
102406.63
102406.57
102386.44
102386.44
102386.52
102386.39
102386.94
102386.33
102387.76
102386.62
102389.29
102387.42
102391.53
102390.13
102392.69
102392.36
102393.46
102393.41
102393.84
102393.84
102394
102393.94
102374.19
102374.19
102374.25
102374.27
102374.56
102374.24
102375.51
102374.57
102377.11
102375.57
102379.63
102378.43
102381.03
102380.74
102381.93
102381.95
102382.42
102382.44
102382.6
102382.56
102363.27
102363.27
102363.32
102363.37
102363.55
102363.56
102364.51
102363.9
102366.22
102365.07
102368.83
102368.09
102370.49
102370.46
102371.6
102371.73
102372.18
102372.27
102372.41
102372.38
102353.69
102353.69
102353.75
102353.8
102353.98
102354.16
102354.79
102354.58
102356.61
102355.97
102359.34
102359.1
102361.3
102361.48
102362.55
102362.79
102363.24
102363.35
102363.5
102363.48
102345.63
102345.63
102345.69
102345.74
102345.93
102346.14
102346.63
102346.83
102348.47
102348.4
102351.31
102351.58
102353.53
102353.97
102354.92
102355.24
102355.66
102355.8
102355.9
102355.92
102927.22
102927.27
102926.67
102926.5
102926.26
102926.16
102922.17
102920.41
102918.73
102914.59
102915.84
102909.47
102907.47
102903.82
102900.57
102893.25
102878.03
102927.64
102916.7
102911.3
102904.36
102903.84
102904.07
102903.51
102904.49
102899.57
102893.5
102894.86
102894.93
102887.8
102888.33
102883.41
102886.61
102883.28
102883.83
102881.36
102878.83
102880.93
102877.38
102876.34
102878.46
102877.94
102878.21
102877.03
102877.51
102874.9
102874.8
102871
102871.42
102863.21
102868.08
102859.28
102866.65
102861.95
102863.66
102860.22
102855.83
102850.72
102856.13
102851.23
102853.12
102852.26
102853.64
102850.85
102854.77
102849
102853.79
102845.78
102846.54
102838.41
102849.68
102831.32
102847.06
102833.01
102838.25
102833.47
102835.44
102834.78
102813.44
102814.02
102827.56
102826.64
102827.87
102825.02
102828.24
102823.32
102827.75
102818.17
102825.04
102801.44
102840.31
102791.72
102831.21
102794.72
102816.71
102798.16
102803.27
102800.41
102801.89
102799.18
102800.89
102799.87
102801.23
102798.54
102801.79
102797.23
102802.81
102790.07
102804.36
102774.41
102822.2
102735.95
102822.22
102780.99
102792.67
102779.93
102782.35
102777.54
102779.9
102777.47
102775.08
102774.27
102775.36
102773.63
102775.56
102770.88
102777.21
102755.28
102779.59
102745.5
102787.91
102745.29
102743.6
102789.99
102780.86
102764.01
102763.14
102758.8
102760.18
102757.62
102749.32
102748.35
102749.74
102747.79
102751.73
102748.6
102746.09
102736.77
102748.4
102729.96
102766.43
102702.71
102746.85
102753.11
102747.55
102741.95
102743.48
102737.4
102738.53
102736.16
102721.22
102719.28
102722.02
102718.77
102725.13
102713.64
102740.09
102706.93
102718.66
102705.66
102741.09
102695.5
102722.11
102713.45
102715.51
102712.14
102716.64
102712.52
102713.53
102712.14
102694.01
102692.51
102694.96
102694.91
102696.39
102695.55
102705.43
102677.61
102745.7
102651.45
102712.15
102697.5
102690.95
102686.09
102691.32
102688.81
102689.83
102688.77
102689.18
102688.4
102669.08
102668.48
102669.58
102668.8
102669.27
102671.62
102673.13
102682.42
102684.83
102663.2
102680.5
102647.4
102672.33
102662.62
102662.14
102663.56
102665.18
102665.01
102665.43
102664.91
102646.9
102646.57
102647
102645.81
102646.86
102644.18
102644.18
102640
102649.3
102611.74
102696.84
102634.46
102644.94
102641.01
102643.02
102641.89
102642.94
102642.18
102642.09
102641.64
102623.55
102622.29
102624.06
102621.77
102623.92
102619.85
102620.88
102618.83
102619.14
102619.56
102633.06
102618.58
102621.28
102619.33
102621.24
102620.15
102621.4
102620.35
102620.6
102620.04
102599.88
102596.44
102600.22
102599.71
102598.33
102597.08
102600.81
102593.12
102600.84
102597.22
102601.63
102595.89
102599.53
102597.97
102599.54
102599.05
102600.26
102599.68
102599.7
102599.35
102578.81
102575.66
102581.76
102575.72
102576.58
102576.98
102578.36
102574.83
102579.71
102574.34
102579.94
102574.87
102578.21
102576.96
102578.39
102577.81
102578.86
102578.13
102578.26
102577.85
102555.92
102555.34
102557.71
102555.67
102555.41
102554.95
102558.6
102553.43
102557.88
102552.71
102557.95
102554.26
102557.67
102555.97
102557.56
102556.76
102557.43
102556.91
102557.17
102556.77
102538.06
102536.71
102539.12
102533.46
102534.59
102533.22
102536.02
102532.53
102536.9
102531.98
102537.76
102533.91
102537.54
102535.89
102537.36
102536.72
102536.99
102536.76
102536.75
102536.5
102517.55
102515.01
102521.59
102513.74
102514.43
102513.05
102515.26
102512.8
102516.98
102512.02
102516.36
102514.13
102517.91
102516.72
102518.48
102517.72
102517.94
102517.54
102517.71
102517.46
102498.07
102497.71
102502.01
102492.32
102494.69
102493.64
102496.07
102493.67
102497.65
102493.34
102498.66
102495.39
102499.04
102497.88
102501.31
102499.58
102499.54
102498.78
102498.85
102498.55
102478.18
102478.25
102480.31
102475.34
102476.85
102475.58
102477.73
102475.51
102479.1
102475.35
102480.52
102477.37
102480.29
102479.47
102480.74
102480.36
102480.73
102480.36
102480.43
102480.37
102459.59
102459.23
102459.76
102458.67
102459.59
102458.16
102460.08
102457.83
102461.36
102457.64
102462.24
102459.6
102462.59
102461.61
102462.57
102462.41
102462.81
102462.71
102462.82
102462.67
102441.87
102441.57
102442.07
102441.36
102442.31
102441.11
102442.81
102440.91
102443.94
102440.87
102445.45
102443.1
102445.57
102444.73
102445.81
102445.55
102446.08
102445.9
102446.08
102445.92
102425.08
102424.86
102425.32
102424.72
102425.64
102424.58
102426.26
102424.5
102427.57
102424.69
102429.25
102427.01
102429.59
102428.75
102429.85
102429.61
102430.1
102430.03
102430.18
102430.07
102409.4
102409.23
102409.66
102409.1
102410
102409.02
102410.64
102409.07
102411.94
102409.42
102414
102411.87
102414.55
102413.83
102414.98
102414.79
102415.3
102415.21
102415.41
102415.29
102394.67
102394.65
102394.86
102394.49
102395.26
102394.44
102395.97
102394.62
102397.39
102395.2
102399.53
102397.85
102400.3
102399.94
102401.01
102401.02
102401.47
102401.47
102401.63
102401.56
102381.06
102381.05
102381.15
102380.98
102381.59
102380.93
102382.36
102381.23
102383.85
102382.04
102386.11
102384.87
102387.25
102387.08
102388.2
102388.24
102388.69
102388.71
102388.88
102388.81
102368.74
102368.73
102368.8
102368.8
102369.15
102368.76
102370.04
102369.16
102371.64
102370.2
102374.07
102373.15
102375.51
102375.45
102376.58
102376.67
102377.16
102377.2
102377.37
102377.32
102357.77
102357.76
102357.82
102357.86
102358.08
102357.99
102359.04
102358.41
102360.71