/*--------------------------------*- C++ -*----------------------------------*\
| =========                 |                                                 |
| \\      /  F ield         | OpenFOAM: The Open Source CFD Toolbox           |
|  \\    /   O peration     | Version:  1.7.x                                 |
|   \\  /    A nd           | Web:      www.OpenFOAM.com                      |
|    \\/     M anipulation  |                                                 |
\*---------------------------------------------------------------------------*/
FoamFile
{
    version     2.0;
    format      ascii;
    class       volScalarField;
    location    "0.0045";
    object      rho;
}
// * * * * * * * * * * * * * * * * * * * * * * * * * * * * * * * * * * * * * //

dimensions      [1 -3 0 0 0 0 0];

internalField   nonuniform List<scalar> 
206988
(
1.1817716
1.1817357
1.1817403
1.1817468
1.1817553
1.1817144
1.1816891
1.1816456
1.1816868
1.1816447
1.1816446
1.1816255
1.1815567
1.1814175
1.1812423
1.180947
1.1811863
1.1807005
1.1828615
1.1833099
1.1815773
1.1815551
1.1815703
1.1815593
1.1815806
1.1815754
1.1815493
1.181485
1.1815064
1.1814885
1.1814519
1.1814011
1.1813795
1.181199
1.1811001
1.1807012
1.1817235
1.1815333
1.1821819
1.1825767
1.181418
1.1813776
1.1813868
1.1813996
1.1814186
1.1814185
1.1813999
1.1813084
1.1813376
1.181264
1.1812306
1.1811442
1.1810933
1.1808114
1.1812737
1.1808222
1.1821235
1.1819867
1.1819526
1.182209
1.1809121
1.1813653
1.1813342
1.1812962
1.1812697
1.1813352
1.1813009
1.1813691
1.1812153
1.181448
1.1806695
1.180503
1.1805603
1.1771592
1.185106
1.1809562
1.1845765
1.1832496
1.1827623
1.1831652
1.1810422
1.1811
1.181115
1.1811255
1.1812199
1.1814782
1.1818587
1.1841651
1.1801084
1.1860819
1.1751206
1.1761776
1.1841966
1.1797788
1.183576
1.181384
1.183267
1.1815159
1.1836705
1.1834425
1.1808819
1.18082
1.1808648
1.1809062
1.1810601
1.181334
1.1819564
1.1847702
1.1773037
1.1787217
1.1876208
1.189966
1.1697187
1.1767062
1.183385
1.1817918
1.1814323
1.1811568
1.181684
1.1817389
1.1805903
1.1805549
1.1805736
1.1806055
1.1806678
1.1807562
1.1809534
1.1814687
1.179305
1.1846677
1.1785485
1.1806408
1.1804474
1.1807997
1.180006
1.1806916
1.1797343
1.1800364
1.1801341
1.1807355
1.1803362
1.1803336
1.1803468
1.1803544
1.1803751
1.1803808
1.1805798
1.1804431
1.1799222
1.1831321
1.1786589
1.1809987
1.1791484
1.1805893
1.1795202
1.1800331
1.179028
1.1792691
1.1795708
1.1801804
1.1801633
1.1801699
1.1801794
1.1801848
1.1801897
1.1802047
1.1802688
1.1804501
1.1806909
1.1827699
1.1775646
1.1801887
1.1795666
1.1802009
1.1789832
1.1795458
1.1788502
1.1789975
1.1793167
1.1798649
1.1800098
1.1800089
1.1800279
1.1800286
1.179995
1.1800267
1.1801002
1.1803966
1.180517
1.1818049
1.1779546
1.1800162
1.179452
1.1801455
1.1793553
1.1804608
1.1776151
1.1784693
1.1786721
1.1792638
1.179849
1.1798325
1.1798657
1.1798989
1.1799174
1.1800791
1.1797642
1.1801554
1.1801763
1.1808827
1.1787725
1.1795389
1.1794039
1.180061
1.1791136
1.1799015
1.1779711
1.1785729
1.1784782
1.1791232
1.1796582
1.1796374
1.1796629
1.1797167
1.1797804
1.1799028
1.1797506
1.1798288
1.1799844
1.1811975
1.1781941
1.1794787
1.1790381
1.1793989
1.178999
1.1793961
1.1784159
1.1787439
1.1785434
1.1793419
1.1794704
1.179468
1.1795115
1.1794634
1.1795739
1.1797727
1.1796594
1.1798347
1.1797049
1.1827621
1.1763193
1.1785039
1.1789229
1.1792424
1.1787381
1.1789454
1.1787538
1.1788842
1.1788036
1.1794811
1.1793052
1.1792909
1.1793588
1.1793049
1.1793999
1.1794496
1.1793769
1.1797541
1.1795462
1.1826429
1.174936
1.1771253
1.1795299
1.1790881
1.1788106
1.1788447
1.1788994
1.1789183
1.1789755
1.179527
1.1791113
1.1791292
1.1791934
1.179225
1.1790142
1.1791448
1.1792066
1.1789393
1.1788376
1.1797131
1.1777635
1.1782124
1.1787148
1.178537
1.1789653
1.1789503
1.1788908
1.1788983
1.1788994
1.1794136
1.1789325
1.1788838
1.1789314
1.1789335
1.1789987
1.1790993
1.1791649
1.1792175
1.1784345
1.1797545
1.1776498
1.1781193
1.1783526
1.1783382
1.1788991
1.1788639
1.1787933
1.1788032
1.1787317
1.1792508
1.1788089
1.1787715
1.178842
1.1789673
1.1789755
1.1791561
1.1784492
1.1785999
1.1782064
1.1777889
1.1790175
1.1778126
1.1790101
1.1785532
1.1787696
1.1786727
1.1786661
1.178642
1.1785932
1.1791135
1.1786547
1.1786509
1.1786466
1.1788029
1.1788617
1.1791658
1.1782603
1.178761
1.1786173
1.1798083
1.1771453
1.1775606
1.1787274
1.1784935
1.1785164
1.1784976
1.1784438
1.1784396
1.1784467
1.1789648
1.17848
1.1784303
1.1785256
1.1785918
1.1787046
1.1790501
1.1790352
1.180391
1.1770429
1.1789832
1.1769218
1.1778433
1.1781707
1.1783182
1.1781777
1.178277
1.1782179
1.1782496
1.1782875
1.1788182
1.1782165
1.1782393
1.1783074
1.1782974
1.1783773
1.1784657
1.178589
1.1795797
1.1771636
1.1794977
1.1767529
1.1782002
1.1775138
1.1780527
1.1778057
1.1779914
1.1780216
1.1780839
1.1781168
1.1786408
1.178029
1.1780493
1.178083
1.1780568
1.1780899
1.1781426
1.1781099
1.1785364
1.1776316
1.178955
1.176813
1.1779305
1.1775074
1.1779287
1.1776433
1.1778665
1.1778745
1.1779546
1.177931
1.1784469
1.1779345
1.1778923
1.1779063
1.1779223
1.1779592
1.178049
1.177932
1.1782799
1.1775743
1.178458
1.1769643
1.1778025
1.1775884
1.1778827
1.1775669
1.1777606
1.1777209
1.177799
1.1777838
1.1783328
1.1777819
1.1777711
1.1777867
1.177812
1.1777488
1.1777914
1.1777329
1.1777942
1.1775003
1.177373
1.1778842
1.1778017
1.177697
1.1778129
1.1775588
1.1776707
1.177616
1.1776565
1.1777258
1.1782454
1.177662
1.1776556
1.1776744
1.177703
1.1776748
1.1777677
1.177785
1.1782856
1.1769673
1.1776045
1.1774503
1.1775779
1.1776341
1.177661
1.1775274
1.1775613
1.1775745
1.1775802
1.1776442
1.178158
1.1775059
1.177503
1.1774993
1.177496
1.1775035
1.1774967
1.1774851
1.1774
1.1775117
1.1774623
1.1774655
1.1774798
1.1775172
1.1775268
1.1774783
1.1774941
1.1775003
1.1775067
1.1775569
1.1780608
1.1774073
1.1774087
1.1774211
1.1774343
1.1773499
1.1773991
1.1774275
1.1775532
1.177189
1.1773251
1.1773954
1.1773838
1.1774116
1.1774156
1.1774186
1.1774317
1.1774207
1.1774253
1.1774403
1.1779526
1.1772631
1.1772616
1.1772694
1.1772585
1.1772846
1.1772666
1.1772918
1.1772705
1.1772778
1.1772608
1.1772987
1.177289
1.1773138
1.1773246
1.1773337
1.1773429
1.1773332
1.1773348
1.1773516
1.1778536
1.1771702
1.1771732
1.1771666
1.1771762
1.1771445
1.1771256
1.1772211
1.1771797
1.1772007
1.1771853
1.1772228
1.1772071
1.1772241
1.1772252
1.177245
1.1772462
1.1772495
1.1772416
1.1772658
1.1777664
1.1770932
1.1770933
1.1770939
1.1770899
1.1770867
1.1770871
1.1771113
1.1771038
1.1771173
1.1771155
1.1771452
1.17714
1.1771594
1.1771631
1.1771699
1.1771627
1.1771638
1.1771749
1.1771927
1.1776929
1.1770285
1.1770274
1.1770275
1.1770261
1.1770278
1.1770284
1.1770338
1.1770358
1.1770522
1.1770446
1.1770669
1.177077
1.1770941
1.1770947
1.1771082
1.1771101
1.1771137
1.1771159
1.1771306
1.1776296
1.1818083
1.1817679
1.1817527
1.181759
1.1817627
1.1817747
1.1817617
1.1817723
1.1817529
1.1817221
1.1816687
1.1816367
1.1816101
1.1816282
1.1815919
1.1815273
1.1815787
1.1817113
1.181464
1.1819782
1.1816355
1.1816412
1.1815949
1.1815903
1.1815946
1.1816142
1.1816058
1.1815941
1.1815806
1.1815288
1.1815181
1.1814541
1.1814544
1.181411
1.1814405
1.1813638
1.1814775
1.1814893
1.1815338
1.1820622
1.181415
1.1814353
1.1813968
1.1813995
1.181404
1.1813864
1.1813586
1.1813968
1.181351
1.1811299
1.1812396
1.1811249
1.1813671
1.1812615
1.1814925
1.1813167
1.181645
1.1816763
1.1815131
1.1820276
1.1815375
1.1811253
1.1811756
1.1811212
1.181105
1.1809401
1.181411
1.1811372
1.181003
1.1792221
1.1817641
1.1810983
1.1822788
1.180792
1.1820375
1.1806459
1.1828288
1.181661
1.1831117
1.1832058
1.1811425
1.1810185
1.1810361
1.180962
1.1809104
1.1806976
1.1811698
1.180217
1.1827879
1.1801553
1.1797787
1.1906845
1.1689134
1.1809662
1.1812174
1.1826135
1.1812396
1.1824326
1.1806318
1.1813174
1.1808311
1.1807978
1.1807847
1.1807508
1.1807335
1.1805742
1.1807029
1.1798812
1.1832715
1.1877305
1.1732754
1.1882331
1.1712135
1.1838996
1.1733562
1.1797896
1.1794998
1.180947
1.180205
1.1808742
1.1805659
1.1805668
1.180566
1.1805337
1.1805583
1.1804261
1.180457
1.1800566
1.1809136
1.1767518
1.1836033
1.1851185
1.1749286
1.1811415
1.1773741
1.1796663
1.1793296
1.179967
1.1796996
1.1803212
1.1803271
1.1803378
1.1803525
1.1803457
1.1803802
1.1803936
1.1805428
1.1804963
1.1814228
1.1801464
1.1808111
1.182909
1.1785705
1.182734
1.1759838
1.1788755
1.1787988
1.1792307
1.17943
1.180037
1.1801878
1.1801715
1.1801964
1.1802141
1.1802769
1.1802965
1.1803862
1.1806448
1.1813951
1.1818608
1.1789775
1.1806074
1.1786178
1.1802891
1.1790357
1.180259
1.178135
1.1788214
1.1792129
1.1798103
1.1800287
1.1799841
1.1800183
1.1800191
1.1801156
1.1801246
1.1800643
1.1802417
1.1811721
1.1823617
1.1779822
1.1800895
1.1788144
1.1816566
1.1768809
1.1787317
1.1785845
1.1788324
1.1791247
1.1796654
1.1798364
1.1798126
1.1798404
1.179873
1.1799585
1.1800463
1.1798353
1.179971
1.1809392
1.1822559
1.1772924
1.1800121
1.1781597
1.1801038
1.1775993
1.1785558
1.1789346
1.1790114
1.1791211
1.1796874
1.1796447
1.1796384
1.1796691
1.1796991
1.1797939
1.1799018
1.1799185
1.1804012
1.1801815
1.1819126
1.1772044
1.1799944
1.1770351
1.1791835
1.1780078
1.1786882
1.1789847
1.1790252
1.1790836
1.1796406
1.1794565
1.1794548
1.1794957
1.1795121
1.1795928
1.179695
1.1799027
1.1802737
1.1801971
1.1810205
1.1774165
1.1794155
1.1771303
1.1788007
1.1782849
1.1787561
1.1788859
1.1789525
1.178981
1.1795587
1.1792812
1.1792833
1.1793326
1.1793831
1.1795351
1.1798633
1.180032
1.181827
1.1785112
1.1806239
1.1771353
1.1791223
1.1773242
1.1785924
1.1783901
1.1787393
1.1788128
1.1788931
1.1789743
1.1794891
1.1790898
1.1790855
1.1791296
1.1791279
1.1791502
1.1792401
1.1795905
1.1807358
1.1787518
1.1798969
1.1771943
1.1785312
1.1776237
1.1784275
1.1787862
1.1788226
1.1788417
1.1788413
1.1789052
1.1793952
1.1789324
1.178881
1.1789254
1.1789469
1.1789841
1.1790787
1.1792185
1.1797624
1.1787809
1.1797317
1.1771002
1.1780824
1.1781901
1.1784963
1.17879
1.1787681
1.1787686
1.1787456
1.1787647
1.1792582
1.1787987
1.1787925
1.1788527
1.178934
1.179078
1.1793042
1.1785274
1.1791728
1.1783486
1.1785695
1.1779504
1.1778698
1.1785055
1.178437
1.1786854
1.1786915
1.1785863
1.1785768
1.178608
1.1791097
1.1786483
1.1785918
1.1786618
1.1786788
1.1787242
1.1787746
1.1787977
1.179115
1.17865
1.1799599
1.1765504
1.1776424
1.1782502
1.1782319
1.1785826
1.1785511
1.1783768
1.1783958
1.1784773
1.1789643
1.1784861
1.1784494
1.1785557
1.1785835
1.1785412
1.1787939
1.1793653
1.1806497
1.1769789
1.1797021
1.1761473
1.17761
1.1778704
1.1779787
1.1784636
1.1783493
1.1782848
1.1782479
1.1783631
1.178852
1.1782868
1.1782747
1.1783511
1.1783689
1.1784604
1.1787474
1.178443
1.1787922
1.1774092
1.178558
1.1770299
1.1777262
1.1778812
1.1779331
1.1782583
1.1781063
1.1781637
1.1781344
1.1782134
1.1786798
1.1780356
1.1780345
1.1780883
1.17802
1.1780568
1.1780636
1.1779731
1.1779348
1.1777962
1.177696
1.1778458
1.1778869
1.1777683
1.1779237
1.1778204
1.1779327
1.1780211
1.1780404
1.1779886
1.1785066
1.1778914
1.1778732
1.1778897
1.1778838
1.1778885
1.1778835
1.1779142
1.1780094
1.1776585
1.1773735
1.178179
1.1779007
1.1777292
1.177835
1.1776562
1.1778057
1.1778839
1.1778957
1.1778729
1.1783785
1.1777738
1.1777651
1.177774
1.1777711
1.1777304
1.1776959
1.1777491
1.177645
1.1776707
1.1772536
1.1781491
1.1778204
1.1777289
1.1777563
1.1776007
1.1776775
1.1777136
1.1777383
1.1777714
1.1782683
1.177651
1.1776614
1.1776888
1.1777132
1.177647
1.1777848
1.1775372
1.1774714
1.1776969
1.1776127
1.1775344
1.17758
1.1776082
1.1776392
1.1775513
1.1775924
1.1775844
1.1776254
1.1776369
1.1781492
1.177478
1.1774788
1.1774817
1.177479
1.1775549
1.1775815
1.1775126
1.1776354
1.1773655
1.1775618
1.1773307
1.17744
1.1775044
1.1775179
1.1774944
1.1774933
1.1775168
1.1775211
1.1775412
1.1780527
1.1774023
1.1774007
1.1774103
1.1774494
1.1773519
1.177405
1.1773564
1.1773263
1.1773894
1.1773655
1.1773249
1.177371
1.1774032
1.1774052
1.1774147
1.1774186
1.1774405
1.1774144
1.1774635
1.177962
1.1772753
1.177282
1.1772933
1.1772996
1.1772519
1.1772845
1.1772768
1.1773348
1.1772059
1.1772474
1.1772816
1.1772872
1.1773069
1.1773181
1.1773202
1.1773242
1.1773356
1.1773167
1.1773712
1.1778699
1.1771669
1.1771655
1.177162
1.1771543
1.1771802
1.1771775
1.1771983
1.1771959
1.177168
1.1771803
1.1772222
1.1772093
1.1772342
1.1772303
1.1772389
1.1772322
1.1772366
1.1772435
1.1772842
1.1777763
1.1770855
1.1770858
1.1770861
1.1770904
1.1770919
1.1770911
1.1771006
1.1770999
1.1771117
1.1771091
1.1771411
1.1771317
1.1771522
1.1771553
1.1771594
1.1771579
1.1771577
1.1771605
1.1772095
1.1776977
1.177019
1.1770202
1.177019
1.1770218
1.1770181
1.1770215
1.177028
1.1770303
1.1770422
1.1770431
1.1770613
1.177071
1.1770903
1.1770936
1.1771022
1.1771016
1.1771056
1.1771105
1.1771318
1.1776288
1.1817759
1.1817713
1.1817647
1.1817832
1.1817693
1.1817586
1.1818167
1.1817885
1.1817343
1.1817083
1.181726
1.1816564
1.1816456
1.1816289
1.1815767
1.1815668
1.1815785
1.1815445
1.1815777
1.1819622
1.1815957
1.1815934
1.1815991
1.1815887
1.1815817
1.1816014
1.1816218
1.1815524
1.1815795
1.1814833
1.1814392
1.181415
1.1814866
1.1814658
1.1814956
1.1815085
1.1815178
1.1816197
1.1814766
1.1819217
1.1813871
1.181385
1.1813869
1.181396
1.1813808
1.1813688
1.1813411
1.1813994
1.1813524
1.1810836
1.1810632
1.1808268
1.181518
1.1814682
1.181547
1.1818716
1.1811007
1.1815437
1.1816327
1.1823091
1.1808964
1.1813161
1.1812596
1.181229
1.1811728
1.1811051
1.1812403
1.1812224
1.1808554
1.1789911
1.1802072
1.1738238
1.1886996
1.1820286
1.1830219
1.1822066
1.1816949
1.181631
1.1825686
1.1828935
1.181124
1.181211
1.1809948
1.181059
1.1811778
1.1813695
1.181296
1.1824549
1.1829651
1.1952378
1.1641894
1.1643625
1.1932218
1.1759569
1.1886753
1.1814875
1.1848959
1.182558
1.1837346
1.1832351
1.1808536
1.1807705
1.180773
1.1807464
1.1807373
1.1805531
1.179775
1.1779071
1.1841302
1.1850163
1.178276
1.1774849
1.1803631
1.1763295
1.1842473
1.1804319
1.1846868
1.182539
1.1836328
1.1830494
1.1806283
1.1805978
1.1805617
1.1806129
1.1806343
1.1806769
1.1804356
1.1802626
1.1806483
1.1801283
1.1814699
1.1758906
1.1842112
1.1795753
1.1825955
1.1810105
1.18174
1.1811056
1.1818841
1.1818846
1.1803745
1.1803705
1.180385
1.180393
1.1804775
1.1805145
1.1805622
1.1807483
1.1803935
1.1802957
1.1817139
1.1791253
1.1813442
1.1800261
1.1811868
1.1811735
1.1799561
1.1799207
1.1806889
1.180821
1.1802019
1.1801822
1.1802039
1.1802372
1.1802659
1.180379
1.1805626
1.1809274
1.1813847
1.183973
1.1763126
1.1793008
1.1793936
1.1797257
1.1805799
1.1808234
1.1792776
1.179427
1.1795762
1.1801815
1.1799911
1.1799695
1.1799889
1.1799491
1.180113
1.1800347
1.1803308
1.1804448
1.1812003
1.1824768
1.1770416
1.1789658
1.1792126
1.1797024
1.1797401
1.1800571
1.1790351
1.1791922
1.179238
1.1798984
1.1797911
1.1797775
1.1797933
1.179779
1.1799994
1.1798117
1.1801479
1.1802801
1.1808349
1.1823105
1.1771171
1.1792944
1.1787669
1.179443
1.1790315
1.1794295
1.1789352
1.1790968
1.1791292
1.1798167
1.1796266
1.1796134
1.1796512
1.1796728
1.1797477
1.1798486
1.1801757
1.1808307
1.1796724
1.1797119
1.1787958
1.1797365
1.1777125
1.1787883
1.1788763
1.1791865
1.1789246
1.1790624
1.1791494
1.1797268
1.1794431
1.1794371
1.1794648
1.1794837
1.179556
1.1797252
1.1800294
1.1807816
1.1803151
1.1838906
1.1740201
1.1786067
1.1776661
1.1785648
1.1787967
1.1790068
1.178956
1.1790407
1.179136
1.179658
1.1792708
1.1792663
1.1793153
1.1793389
1.1793523
1.1795246
1.1797998
1.1803979
1.1796952
1.1826252
1.1746008
1.1778289
1.1781994
1.1785825
1.1788554
1.1789256
1.1789686
1.1789811
1.1790539
1.1795627
1.1791392
1.1791051
1.1791882
1.1791909
1.1790413
1.1792235
1.1795102
1.180108
1.1792763
1.1813647
1.1756808
1.1777501
1.1787199
1.1787213
1.1788606
1.1788424
1.1788676
1.1788554
1.1789364
1.1794214
1.178923
1.178874
1.1789394
1.1790525
1.1790748
1.1795301
1.1791404
1.1799573
1.1789562
1.1814516
1.1754206
1.1780963
1.1780802
1.1783827
1.1787052
1.1786828
1.1786802
1.1786811
1.1787703
1.1792554
1.1788613
1.1788523
1.1789799
1.1790901
1.1792327
1.1799194
1.1780076
1.1793083
1.1789989
1.1818188
1.1746631
1.1780132
1.1775123
1.1780739
1.1785527
1.1785557
1.1784831
1.1785086
1.1785926
1.179093
1.1786542
1.1786274
1.1786943
1.1787929
1.1789401
1.1793876
1.1781467
1.1790949
1.1791128
1.1818051
1.1740831
1.177335
1.1776083
1.1779277
1.1784654
1.178423
1.1783533
1.178352
1.1784652
1.1789634
1.1784872
1.178421
1.178512
1.1785829
1.1786914
1.1790843
1.178659
1.1797211
1.1781466
1.1811118
1.1742492
1.1769839
1.1780341
1.1780778
1.1783031
1.1782722
1.1782139
1.1782394
1.1783132
1.1787999
1.1782535
1.1782384
1.1783007
1.1783416
1.1783671
1.1785833
1.1785163
1.1792144
1.1776224
1.178154
1.1764201
1.1774766
1.1779238
1.1780209
1.1781259
1.1781868
1.1780546
1.1780977
1.1780935
1.1786375
1.1780435
1.1780156
1.1780585
1.1780559
1.1780846
1.1781533
1.1782908
1.17845
1.1778753
1.1783369
1.176982
1.1775686
1.177892
1.1778916
1.1781478
1.1780393
1.178009
1.1780026
1.1780264
1.1785394
1.1778694
1.1778568
1.1778656
1.1778651
1.1778244
1.1777474
1.1779697
1.1776598
1.1779756
1.1776464
1.1779117
1.1776514
1.1779775
1.1778464
1.1780267
1.1778416
1.1779423
1.1779072
1.177954
1.1784388
1.1777745
1.1777715
1.1777927
1.1778363
1.1777869
1.1779019
1.1776412
1.1777565
1.1776722
1.1779921
1.1774055
1.1775676
1.1778172
1.1777492
1.1778089
1.17771
1.1777969
1.1777739
1.1778363
1.1783205
1.1776323
1.1776362
1.1776549
1.177669
1.1777471
1.1778732
1.1778676
1.1785987
1.1766462
1.1776278
1.1772582
1.1774881
1.1776406
1.1776146
1.1776355
1.1775974
1.177638
1.1776165
1.1776954
1.178178
1.1774603
1.1774565
1.1774569
1.1774373
1.1775221
1.1774747
1.1776197
1.1775855
1.1773115
1.1774162
1.1774302
1.177443
1.1774965
1.1774889
1.1775199
1.1775222
1.1774899
1.1775101
1.1775314
1.17803
1.1773769
1.1773688
1.1773738
1.1773827
1.1773962
1.1774418
1.1775101
1.1777667
1.1769413
1.1772379
1.1773615
1.1773551
1.1773942
1.1774007
1.1774304
1.1774476
1.1773991
1.1774056
1.1774057
1.1779158
1.1772593
1.177259
1.1772615
1.1772657
1.1772779
1.1772797
1.1772721
1.1772966
1.1771859
1.177224
1.1772701
1.1772777
1.1773003
1.1773088
1.177325
1.1773353
1.1773092
1.1773081
1.1773246
1.1778295
1.1771756
1.1771714
1.1771725
1.1771899
1.1771475
1.1771723
1.1771458
1.1771556
1.1771812
1.1771704
1.1771941
1.1772029
1.1772165
1.1772191
1.1772247
1.177227
1.1772214
1.1772327
1.1772541
1.1777545
1.1770819
1.1770813
1.1770819
1.1770826
1.1770766
1.1770828
1.1770818
1.1770823
1.1771018
1.1770929
1.1771253
1.1771174
1.1771379
1.1771397
1.177143
1.1771487
1.1771479
1.1771588
1.1771844
1.1776819
1.177005
1.177004
1.1770045
1.1769924
1.177025
1.1770187
1.1770245
1.1770272
1.1770365
1.177034
1.1770576
1.1770598
1.1770761
1.1770762
1.1770947
1.177105
1.1771133
1.1770952
1.1771188
1.1776017
1.1817707
1.1817779
1.1817521
1.1817649
1.181758
1.1817659
1.1817859
1.1817365
1.1817332
1.1816809
1.1816602
1.1816259
1.1816206
1.1816111
1.1815942
1.1814585
1.1812774
1.1808602
1.1823829
1.1826175
1.1815531
1.1815351
1.1815499
1.1815563
1.1815395
1.1815921
1.1816094
1.1815341
1.1815232
1.1815026
1.1814443
1.1814167
1.1814205
1.1813819
1.1812913
1.1812883
1.1814535
1.1813409
1.1819961
1.1824212
1.1813449
1.1813412
1.1813425
1.181346
1.1813246
1.1813642
1.1813363
1.1812675
1.1812864
1.181109
1.1808762
1.1811786
1.1812382
1.1808258
1.1803509
1.1780245
1.185377
1.1831622
1.1829862
1.1830383
1.1812772
1.1811701
1.1811959
1.1810947
1.1810555
1.1812868
1.1812786
1.181433
1.180662
1.1802262
1.1779941
1.1814367
1.1824854
1.1810503
1.1815763
1.1806957
1.1828695
1.1822519
1.1817819
1.181936
1.1811417
1.1810213
1.181043
1.1809664
1.1810627
1.1813276
1.1815761
1.1828453
1.1799176
1.1832296
1.1771442
1.184283
1.1757241
1.1802956
1.1800812
1.1812847
1.1824967
1.1830928
1.1798241
1.1806009
1.1808372
1.1808064
1.1808294
1.1808141
1.1808605
1.1809636
1.1809326
1.1812853
1.1765081
1.1707594
1.190375
1.1764099
1.1840342
1.1742538
1.1908512
1.1835259
1.1848385
1.1833616
1.1817668
1.1819663
1.1806424
1.1806283
1.1806563
1.1806915
1.1807914
1.1809788
1.1808964
1.1814088
1.1794578
1.181914
1.1793142
1.183886
1.1742046
1.1767263
1.1832024
1.1815698
1.1829508
1.1821991
1.1816765
1.1818038
1.1804225
1.1804191
1.1804484
1.180486
1.1806102
1.1807364
1.1809328
1.1812495
1.1802466
1.1828693
1.177476
1.1821678
1.175967
1.177712
1.1819284
1.1810041
1.1813705
1.1810263
1.1810988
1.1811888
1.1801889
1.1801916
1.1802277
1.1802435
1.18037
1.1804482
1.1811123
1.1813974
1.1818915
1.1867968
1.173376
1.1787619
1.1776759
1.1785477
1.1806716
1.1803525
1.1804712
1.180243
1.1804449
1.1806341
1.1799694
1.1799579
1.1799967
1.1799794
1.1801301
1.1802906
1.1807106
1.1810676
1.1817362
1.1847124
1.1736883
1.1781317
1.1785419
1.179133
1.1797253
1.1798109
1.1796608
1.1796725
1.1796326
1.1802298
1.1797771
1.1797661
1.1797788
1.1798176
1.1799049
1.1799346
1.1801145
1.1805383
1.1812299
1.1839965
1.1746545
1.1777458
1.1790773
1.1792269
1.1792992
1.1794395
1.1793217
1.1793756
1.1793559
1.1799824
1.1796005
1.1795995
1.1796272
1.1796511
1.1797734
1.1798014
1.1798655
1.1802066
1.1810218
1.1841138
1.1749676
1.1782676
1.1785205
1.1789167
1.1791625
1.1792833
1.1791858
1.1792491
1.1792288
1.1798124
1.1794455
1.1794033
1.1794446
1.1794622
1.1795202
1.1796367
1.179817
1.1800662
1.1805501
1.1838593
1.1744759
1.1779613
1.1785059
1.1788263
1.1790134
1.1791227
1.1790863
1.1791581
1.1791186
1.1796747
1.1792324
1.1791979
1.1792308
1.1792172
1.179335
1.1793185
1.1796594
1.1797686
1.179983
1.181796
1.1761524
1.178648
1.177975
1.1786331
1.178784
1.1788584
1.178937
1.1789579
1.179017
1.1795439
1.179063
1.1790184
1.1790632
1.1790752
1.1791142
1.1792184
1.1794545
1.1798579
1.179219
1.1807638
1.1764504
1.1789342
1.1773596
1.178553
1.1783388
1.1786696
1.178621
1.1787545
1.178822
1.1793398
1.178861
1.1788243
1.1788698
1.1788273
1.1789003
1.1790054
1.1794224
1.1798434
1.1788708
1.1807773
1.1762957
1.1785632
1.1774862
1.1783699
1.1782116
1.1785409
1.1784482
1.1786002
1.1786199
1.1791405
1.1787643
1.1787504
1.1787974
1.1788707
1.1788134
1.1789602
1.1787093
1.1791475
1.1790734
1.1805174
1.1763501
1.1789973
1.1768665
1.1779902
1.1781373
1.1783953
1.1783292
1.1784455
1.1784517
1.1789951
1.1785946
1.1785699
1.1786107
1.1786572
1.1786514
1.1787501
1.1785494
1.1789198
1.1789873
1.1805423
1.1761887
1.1787223
1.1765635
1.1777489
1.1779782
1.1782257
1.1782339
1.1783145
1.1783397
1.1788779
1.1784523
1.1784025
1.1784879
1.1785657
1.1786974
1.1789892
1.1779304
1.1783329
1.1785144
1.1787896
1.1771136
1.1784389
1.1767856
1.1779084
1.1777854
1.1780972
1.1780926
1.1781756
1.1781744
1.1786987
1.1782278
1.1782025
1.1782747
1.178322
1.1783983
1.178643
1.1779062
1.178273
1.17798
1.1783002
1.1774182
1.1778818
1.1779881
1.1780932
1.1778529
1.1780633
1.1779951
1.1780729
1.1780707
1.1785776
1.1779992
1.1779958
1.1780139
1.1779736
1.1780148
1.1779752
1.1779745
1.1777943
1.178125
1.1779976
1.177712
1.1778159
1.1781218
1.1779607
1.1780721
1.1780363
1.1780079
1.1780044
1.1779884
1.1784854
1.1778586
1.1778473
1.1778586
1.1778609
1.1779097
1.1779546
1.1780278
1.17832
1.1774317
1.1780358
1.1774313
1.1777104
1.1779462
1.1778477
1.1779359
1.1778964
1.1778992
1.1778919
1.1778931
1.1783862
1.1777414
1.177741
1.1777605
1.1777926
1.1778
1.1778869
1.1777357
1.1779578
1.1773443
1.1775574
1.1776496
1.1776578
1.1777397
1.1777098
1.1777487
1.1777202
1.1777546
1.1777399
1.1777781
1.1782715
1.1776186
1.1776222
1.1776347
1.1776577
1.1776403
1.1776792
1.177615
1.1776848
1.1773891
1.1775866
1.177443
1.1775255
1.1775701
1.177575
1.177597
1.1775676
1.1776193
1.1775979
1.1776433
1.1781404
1.1774922
1.1774897
1.1774789
1.1775114
1.1774973
1.1775816
1.177443
1.1776122
1.1772579
1.1774677
1.1773211
1.1774147
1.1774774
1.1774832
1.1774918
1.1774941
1.1774654
1.1774641
1.1775049
1.1780144
1.1773579
1.1773603
1.1773463
1.1773627
1.1773663
1.1774093
1.1774098
1.1775601
1.1770779
1.1772616
1.1772953
1.1773277
1.1773697
1.1773836
1.1774011
1.1774102
1.1773657
1.1773735
1.1774028
1.1779012
1.1772248
1.1772243
1.1772237
1.1772228
1.1772323
1.1772269
1.1772328
1.177191
1.177243
1.1772221
1.177255
1.1772503
1.1772765
1.1772842
1.1772984
1.1772988
1.1772791
1.1772869
1.1773122
1.1778027
1.1771374
1.1771354
1.177137
1.1771405
1.1771361
1.1771421
1.1771226
1.1771196
1.1771676
1.1771469
1.1771694
1.1771643
1.1771854
1.1771852
1.177195
1.1771972
1.1771976
1.1771984
1.1772301
1.1777276
1.1770492
1.1770494
1.1770507
1.1770549
1.1770547
1.1770582
1.1770555
1.1770567
1.1770771
1.177069
1.1770967
1.1770943
1.1771144
1.1771124
1.1771197
1.1771212
1.1771235
1.1771278
1.1771515
1.1776537
1.1769794
1.1769783
1.1769824
1.1769818
1.1769822
1.1769849
1.1769914
1.1769919
1.1770106
1.177008
1.1770314
1.1770322
1.1770468
1.1770502
1.1770591
1.1770605
1.1770601
1.1770531
1.1770919
1.1775872
1.181737
1.1817425
1.1817479
1.1817507
1.1817346
1.181737
1.1817015
1.1816735
1.1816618
1.1816355
1.1816457
1.1815887
1.1815921
1.1815686
1.1815202
1.1813752
1.1811322
1.1813925
1.1814209
1.1818387
1.1815147
1.181524
1.1815478
1.1815504
1.1815494
1.1815405
1.181481
1.1814887
1.1814954
1.1814259
1.1813711
1.1812924
1.1813566
1.181543
1.1815113
1.1814071
1.181256
1.1812104
1.1814372
1.1819235
1.1813042
1.1813062
1.1813211
1.1813087
1.1812963
1.1812855
1.1811991
1.1815023
1.1813466
1.1811609
1.1809016
1.1805379
1.1804372
1.1826928
1.1820961
1.181618
1.1809527
1.1805273
1.1824814
1.1821254
1.1810384
1.1809677
1.1809438
1.181207
1.1811532
1.1810591
1.1810559
1.1813074
1.1810547
1.1809613
1.1793845
1.176494
1.1857643
1.1829005
1.1827949
1.1844597
1.18034
1.1807312
1.1797334
1.1802304
1.1809026
1.1808436
1.1808365
1.1807788
1.1808046
1.1805474
1.1806786
1.179884
1.1801497
1.1745875
1.1891045
1.1844058
1.1758973
1.1797983
1.1818383
1.1817714
1.1838195
1.1819311
1.1813758
1.1814023
1.1807562
1.1807336
1.1807398
1.1806904
1.1807105
1.1806038
1.1807746
1.1804818
1.1791768
1.177331
1.1828113
1.1740475
1.1847417
1.1731939
1.1904959
1.1829105
1.186994
1.1834761
1.1828744
1.1829498
1.1806014
1.1805874
1.1805946
1.1805963
1.1806343
1.18064
1.1807513
1.1806669
1.1778794
1.1727249
1.1890881
1.1815583
1.178367
1.1776169
1.1834669
1.1816729
1.1837873
1.1821474
1.1823524
1.1823108
1.1804245
1.1804076
1.1804345
1.180483
1.1806165
1.1807754
1.1806775
1.1812781
1.1799851
1.1809427
1.1792677
1.1756459
1.1842967
1.1809443
1.1811888
1.180829
1.1814054
1.180845
1.1811427
1.1813707
1.1801942
1.1801732
1.1802353
1.1802766
1.1804656
1.180603
1.1805441
1.1810973
1.1808508
1.1831523
1.1773079
1.181012
1.1772018
1.1791814
1.1797798
1.1802634
1.1797786
1.179829
1.1799281
1.1804952
1.1799609
1.1799435
1.1799885
1.1800417
1.1801698
1.1803742
1.1801647
1.1806433
1.1817801
1.1847114
1.1744649
1.1790817
1.1778825
1.179042
1.1791827
1.1798316
1.1790524
1.1792942
1.1793014
1.1800045
1.1798091
1.1797679
1.1798265
1.1798888
1.1797548
1.1799177
1.1800001
1.1805497
1.1809493
1.1831168
1.1763214
1.1808691
1.1755542
1.1781637
1.178749
1.1792102
1.1790937
1.1791911
1.1792158
1.1798414
1.1796353
1.1795989
1.1796702
1.1797374
1.1795716
1.1797647
1.1798693
1.1804173
1.1802405
1.1823599
1.1764835
1.179086
1.1772749
1.178483
1.1789441
1.179146
1.1791875
1.1792258
1.1791674
1.1797308
1.1793672
1.1793553
1.1794091
1.1794163
1.1793812
1.1795021
1.1795673
1.179945
1.1802383
1.1827339
1.175449
1.1780253
1.178468
1.1788175
1.1789147
1.1790486
1.1790669
1.1791141
1.1791349
1.1796421
1.1791924
1.1791674
1.1792189
1.1792723
1.1793021
1.1795774
1.1789529
1.1793406
1.1794992
1.1798233
1.1779424
1.1784217
1.1786911
1.1787993
1.1788804
1.1788952
1.1789291
1.178948
1.1790526
1.1795417
1.1790079
1.1789768
1.1790458
1.1790278
1.1790828
1.1792427
1.1789702
1.1793019
1.1793159
1.1803459
1.1771115
1.1782796
1.178558
1.1787001
1.1786938
1.1787229
1.1787947
1.1788036
1.1788983
1.1793828
1.1788294
1.1788137
1.1787766
1.1788284
1.178809
1.178891
1.1789667
1.179116
1.178559
1.1786294
1.1781609
1.1781863
1.1786836
1.1785772
1.1785872
1.1785971
1.1786914
1.1786801
1.1787414
1.179232
1.1787271
1.1786948
1.1787379
1.1787621
1.178609
1.1787155
1.178566
1.178645
1.178667
1.1788429
1.1780806
1.1786
1.1779878
1.1781465
1.1785859
1.1785034
1.1786193
1.178578
1.1786029
1.1791158
1.178569
1.1785485
1.1786429
1.1786492
1.1786598
1.1789486
1.1783474
1.1788883
1.1780792
1.1786106
1.1778565
1.1782765
1.177769
1.1779432
1.1784822
1.1783592
1.178523
1.1784587
1.1784795
1.1789749
1.1783756
1.1783729
1.1784547
1.1784415
1.1785047
1.1787564
1.1784993
1.1796819
1.1772839
1.1791635
1.1767146
1.1776655
1.1780581
1.1780936
1.1783256
1.1782646
1.178335
1.1782876
1.1782974
1.1787969
1.1781444
1.1781207
1.1781293
1.1780807
1.1781507
1.1781172
1.1781088
1.1780663
1.1780093
1.1779782
1.1774415
1.1774654
1.1784341
1.1780166
1.1783882
1.178238
1.1781783
1.1781331
1.1781685
1.178666
1.1779574
1.1779709
1.1779879
1.1780087
1.1779954
1.1780778
1.1781302
1.1783663
1.1770571
1.1765507
1.1790037
1.177961
1.1782465
1.1779364
1.1782422
1.1780899
1.1780488
1.1780049
1.1780553
1.178529
1.1778202
1.1778285
1.1778381
1.1778629
1.1778569
1.1779535
1.1779082
1.1780286
1.1773902
1.177534
1.1780755
1.1778128
1.1779584
1.1778637
1.1779165
1.177874
1.177879
1.1778537
1.1778989
1.1783699
1.1777324
1.1777318
1.1777335
1.1777666
1.1776853
1.1777582
1.1777429
1.1779547
1.1773398
1.1777496
1.1774268
1.1776111
1.1777242
1.1777347
1.1776492
1.1776587
1.1776654
1.1776715
1.1777101
1.1782136
1.1775975
1.1776007
1.1776149
1.1776608
1.1776912
1.1779416
1.1770895
1.1772494
1.1776041
1.1775366
1.1774574
1.1775076
1.177561
1.1775753
1.1775071
1.1775401
1.1775021
1.1775203
1.1775592
1.1780779
1.17749
1.1774983
1.1774084
1.1774418
1.1774509
1.1775256
1.1773235
1.1774243
1.1773494
1.1774187
1.1773457
1.1773936
1.1774338
1.1774525
1.1774176
1.1774295
1.1774151
1.1774224
1.1774548
1.1779666
1.1773222
1.1773293
1.1772876
1.177303
1.1773148
1.1773407
1.1772912
1.1774077
1.177148
1.1772643
1.1772756
1.1772861
1.1773296
1.1773344
1.1773465
1.177349
1.1773381
1.1773376
1.1773657
1.1778567
1.1771891
1.1771861
1.177178
1.1771876
1.1771862
1.177191
1.1771554
1.1771574
1.1771989
1.1771851
1.1772099
1.177209
1.177241
1.1772448
1.1772545
1.1772508
1.1772418
1.177246
1.1772643
1.177758
1.177091
1.1770932
1.1770929
1.1770997
1.1770759
1.1770851
1.1770834
1.1770747