/*--------------------------------*- C++ -*----------------------------------*\
| =========                 |                                                 |
| \\      /  F ield         | OpenFOAM: The Open Source CFD Toolbox           |
|  \\    /   O peration     | Version:  1.7.x                                 |
|   \\  /    A nd           | Web:      www.OpenFOAM.com                      |
|    \\/     M anipulation  |                                                 |
\*---------------------------------------------------------------------------*/
FoamFile
{
    version     2.0;
    format      ascii;
    class       volScalarField;
    location    "0.0045";
    object      T;
}
// * * * * * * * * * * * * * * * * * * * * * * * * * * * * * * * * * * * * * //

dimensions      [0 0 0 1 0 0 0];

internalField   nonuniform List<scalar> 
206988
(
301.34672
301.35598
301.3534
301.35133
301.34729
301.35312
301.35279
301.36233
301.3487
301.34131
301.33553
301.32678
301.33382
301.35881
301.40782
301.47627
301.40293
301.52141
300.99833
300.91594
301.32757
301.33166
301.32788
301.32848
301.32211
301.31947
301.32572
301.33368
301.32625
301.31638
301.32342
301.31613
301.3208
301.34149
301.39573
301.48021
301.21502
301.26982
301.09418
300.99506
301.2956
301.30439
301.30279
301.296
301.29272
301.28557
301.29277
301.30543
301.30534
301.30154
301.3171
301.31167
301.33186
301.38541
301.27672
301.3765
301.04755
301.07418
301.07864
301.01557
301.35204
301.23446
301.2446
301.25009
301.26093
301.23674
301.24787
301.22
301.27182
301.19156
301.39009
301.40584
301.40136
302.24729
300.23538
301.27066
300.35364
300.68525
300.80915
300.69975
301.24145
301.22558
301.22262
301.21735
301.19527
301.12423
301.03282
300.43364
301.48169
299.9346
302.75858
302.4349
300.42495
301.48736
300.57377
301.09584
300.62832
301.04806
300.50999
300.55692
301.20213
301.21601
301.20725
301.19234
301.16046
301.08425
300.94258
300.19929
302.13428
301.7023
299.533
298.83641
304.07175
302.21152
300.5506
300.9418
300.99304
301.04765
300.93778
300.91482
301.19012
301.1975
301.19465
301.18261
301.174
301.14078
301.11218
300.95269
301.54047
300.12656
301.76737
301.13613
301.22268
301.11476
301.33117
301.1273
301.38532
301.29515
301.27679
301.11663
301.17732
301.17662
301.17511
301.17069
301.17187
301.16624
301.1775
301.10907
301.29411
300.44475
301.64972
300.90717
301.54324
301.10281
301.40751
301.2548
301.50964
301.43558
301.36173
301.20074
301.15546
301.1514
301.15208
301.1487
301.14851
301.14598
301.14209
301.08169
301.03207
300.47002
301.88485
301.09662
301.35054
301.1193
301.43425
301.29222
301.48237
301.44066
301.3617
301.21805
301.12374
301.12183
301.12057
301.11431
301.13358
301.11772
301.1022
301.0298
301.00311
300.64853
301.69846
301.073
301.27597
301.03851
301.29576
300.98701
301.72735
301.50218
301.45271
301.29853
301.09584
301.09385
301.09098
301.07986
301.08462
301.0339
301.11813
301.02212
301.01252
300.78648
301.44352
301.07929
301.26015
301.01918
301.28381
301.06284
301.55529
301.40166
301.42792
301.26114
301.07841
301.07709
301.07317
301.05706
301.04096
300.9912
301.11618
301.00278
300.97243
300.58841
301.56982
301.0787
301.23346
301.12295
301.23428
301.12467
301.37539
301.28882
301.34046
301.13462
301.06288
301.06095
301.05676
301.03702
301.02029
300.98108
301.02809
300.90424
301.05625
300.17673
301.90023
301.2894
301.18349
301.09171
301.22517
301.16862
301.21882
301.18303
301.20376
301.02918
301.0368
301.03356
301.03368
301.01553
301.00244
300.97754
301.00549
300.9042
301.01719
300.16132
302.13761
301.56195
300.95959
301.06552
301.14101
301.12853
301.11584
301.10917
301.09508
300.95291
301.00982
301.00232
300.99548
300.96978
301.03932
300.99594
300.98191
301.0535
301.10463
300.83819
301.35578
301.22419
301.10649
301.14455
301.03856
301.03944
301.05626
301.0527
301.05326
300.92064
300.99327
300.99216
300.98856
300.97891
300.98411
300.93805
300.93937
300.90829
301.12601
300.76901
301.32411
301.1894
301.13895
301.13656
300.99724
301.00368
301.0233
301.01925
301.03789
300.90425
300.95833
300.95854
300.94975
300.91965
300.9178
300.86757
301.05565
301.00694
301.1193
301.21208
300.91495
301.20992
300.91289
301.02317
300.97266
300.99549
300.99872
301.00326
301.01591
300.88202
300.94756
300.9313
300.93326
300.90176
300.88945
300.80678
301.0435
300.90729
300.95567
300.63791
301.3353
301.21661
300.92735
300.98162
300.97956
300.98239
300.99729
300.99725
300.99573
300.86266
300.93004
300.92968
300.92339
300.9003
300.8732
300.77969
300.78832
300.43507
301.30019
300.79358
301.33646
301.089
301.01404
300.97113
301.01131
300.98409
301.00021
300.99106
300.98159
300.84541
300.94296
300.93036
300.92981
300.92026
300.90108
300.87315
300.84609
300.58566
301.21426
300.60806
301.32633
300.94357
301.12813
300.98558
301.05314
301.00394
300.99736
300.98066
300.97264
300.83824
300.93945
300.9324
300.93506
300.92795
300.92157
300.90402
300.91788
300.8029
301.04404
300.69704
301.258
300.96052
301.07874
300.96619
301.04335
300.98549
300.98477
300.96369
300.97015
300.83787
300.91161
300.92209
300.92017
300.91325
300.90646
300.87932
300.91465
300.81941
301.00979
300.77364
301.16976
300.94749
301.00994
300.93136
301.01569
300.96535
300.97639
300.95588
300.96004
300.81941
300.90207
300.90414
300.90152
300.89311
300.91195
300.89757
300.91754
300.89628
300.98079
301.00183
300.88664
300.90104
300.93518
300.90327
300.97142
300.94219
300.95732
300.94665
300.92932
300.79626
300.88648
300.88766
300.88408
300.87513
300.88489
300.85829
300.85856
300.72604
301.07138
300.9006
300.95282
300.91384
300.90535
300.89784
300.93574
300.92691
300.92488
300.92327
300.90738
300.77586
300.88325
300.88394
300.88558
300.88527
300.88568
300.88492
300.89242
300.9101
300.88973
300.89578
300.90717
300.89851
300.8958
300.89222
300.90811
300.90397
300.90376
300.90204
300.88968
300.76073
300.86889
300.86854
300.86564
300.86179
300.88513
300.87053
300.86758
300.83196
300.93288
300.89256
300.88636
300.88551
300.88528
300.8835
300.88608
300.8828
300.88696
300.88584
300.88246
300.75143
300.86972
300.87009
300.86828
300.87106
300.86535
300.86882
300.86622
300.86883
300.87444
300.8743
300.87597
300.87556
300.8761
300.87304
300.87402
300.87192
300.8758
300.87548
300.8717
300.74332
300.86133
300.86057
300.86243
300.86009
300.86876
300.87346
300.85203
300.86065
300.86217
300.86273
300.86403
300.86604
300.86854
300.86834
300.86658
300.86672
300.86722
300.86946
300.86375
300.7358
300.85315
300.85312
300.85313
300.85432
300.85566
300.85598
300.85183
300.85298
300.85549
300.85407
300.85637
300.85694
300.8584
300.85797
300.85946
300.86185
300.86296
300.86038
300.85634
300.72848
300.84613
300.84634
300.84649
300.84703
300.84713
300.84761
300.84765
300.84777
300.84832
300.85003
300.85294
300.85093
300.85241
300.85334
300.85297
300.85316
300.85364
300.85349
300.84999
300.72258
301.3336
301.34346
301.34716
301.34451
301.34014
301.33509
301.32887
301.32327
301.32984
301.3229
301.3228
301.32226
301.32089
301.31201
301.3137
301.32818
301.30802
301.27026
301.34951
301.20441
301.31099
301.30792
301.32016
301.31906
301.31719
301.30829
301.30853
301.3046
301.30785
301.30414
301.30595
301.30056
301.30525
301.28829
301.29223
301.30785
301.27311
301.26843
301.25716
301.12104
301.29469
301.28797
301.2986
301.29415
301.29421
301.29101
301.29449
301.28131
301.29961
301.32513
301.31214
301.31589
301.26313
301.27139
301.22471
301.2529
301.16927
301.15429
301.19943
301.05507
301.19034
301.29306
301.28243
301.2882
301.29898
301.3374
301.21322
301.27772
301.32269
301.75131
301.11896
301.25405
300.97686
301.31692
301.03155
301.33286
300.81028
301.08118
300.73498
300.69301
301.21536
301.24539
301.24269
301.25693
301.27493
301.32124
301.20607
301.43509
300.81245
301.43771
301.56649
298.74997
304.36924
301.24382
301.12496
300.71805
301.14605
300.78492
301.2878
301.08718
301.21327
301.22044
301.22599
301.22794
301.24506
301.27537
301.27804
301.44069
300.61182
299.4186
303.19156
299.27219
303.69798
300.37913
303.10344
301.41606
301.5068
301.1141
301.31433
301.13788
301.19459
301.19198
301.19322
301.18673
301.2052
301.20555
301.23651
301.30902
301.13776
302.13302
300.49421
300.04193
302.61589
301.03097
301.9546
301.3615
301.46709
301.31678
301.37631
301.22077
301.17779
301.17325
301.17125
301.16458
301.15897
301.1428
301.15314
301.12574
300.92025
301.20194
301.14043
300.44173
301.68903
300.55471
302.27403
301.53264
301.55178
301.44303
301.39116
301.23434
301.14776
301.15015
301.14765
301.13952
301.13486
301.1056
301.08869
301.02113
300.84763
300.67923
301.53005
301.00549
301.56749
301.11765
301.43006
301.10716
301.64456
301.50182
301.39385
301.23562
301.11757
301.12673
301.12311
301.11318
301.11243
301.0746
301.12625
301.05824
300.8389
300.49494
301.72698
301.02323
301.44709
300.66866
301.92433
301.43553
301.47574
301.40887
301.33543
301.1945
301.09623
301.09916
301.0959
301.08803
301.07083
301.0339
301.12423
301.05938
300.84709
300.42687
301.80359
300.98307
301.54314
301.00929
301.65772
301.40874
301.31839
301.29197
301.26435
301.11682
301.07797
301.07608
301.07129
301.06016
301.03889
301.00291
301.02223
300.88499
300.91902
300.44091
301.80272
300.91673
301.7337
301.17705
301.48141
301.30338
301.22949
301.21579
301.20134
301.05711
301.0625
301.05909
301.05351
301.04188
301.01801
300.97321
300.9653
300.80598
300.83392
300.6059
301.66725
300.99972
301.62788
301.20077
301.33889
301.21476
301.18333
301.16249
301.15241
301.00543
301.03718
301.03176
301.02555
301.00886
300.97202
300.87803
300.838
300.37428
301.26276
300.66846
301.60162
301.04998
301.52123
301.19128
301.24742
301.15283
301.13234
301.11239
301.09278
300.96021
301.01639
301.00744
301.00827
301.00209
300.99773
300.96613
300.88318
300.58741
301.11608
300.79319
301.49651
301.14341
301.38704
301.17062
301.07752
301.0691
301.066
301.06256
301.0513
300.92342
300.98846
300.99225
300.99122
300.983
300.97687
300.94192
300.92247
300.76481
301.03558
300.7726
301.46428
301.19781
301.17978
301.09521
301.02388
301.02725
301.02979
301.03456
301.02953
300.90202
300.95995
300.95278
300.94848
300.92812
300.88961
300.82861
301.03493
300.85851
301.08298
301.0112
301.1865
301.19386
301.04016
301.05232
300.99247
300.99193
301.02423
301.02172
301.01268
300.88309
300.94539
300.93956
300.94074
300.9309
300.9222
300.90455
300.90453
300.8152
300.94623
300.59714
301.48695
301.19491
301.04826
301.04721
300.96142
300.96779
301.01369
301.0074
300.98683
300.86155
300.9263
300.92267
300.9208
300.89962
300.91265
300.84309
300.70181
300.36709
301.31504
300.60881
301.53408
301.14759
301.08958
301.05652
300.93737
300.96531
300.98214
300.9901
300.96087
300.83535
300.92296
300.92114
300.92364
300.89765
300.87682
300.79887
300.88059
300.7792
301.14902
300.84695
301.2532
301.0643
301.0334
301.01594
300.9362
300.9734
300.95986
300.96645
300.94661
300.82689
300.9376
300.93811
300.93733
300.93089
300.92707
300.92181
300.95119
300.95451
301.00029
301.01768
300.9942
300.975
301.0126
300.96976
300.99879
300.96815
300.94648
300.94073
300.95427
300.82141
300.92173
300.92552
300.92298
300.92146
300.92307
300.92006
300.91769
300.88719
300.98668
301.05032
300.85812
300.9224
300.97289
300.94304
300.99363
300.95558
300.93439
300.93017
300.9361
300.80646
300.90237
300.90368
300.90301
300.90157
300.91483
300.92023
300.9117
300.93301
300.93535
301.03561
300.81816
300.89509
300.9249
300.9163
300.95935
300.93918
300.93093
300.92431
300.91616
300.78894
300.88769
300.8846
300.87884
300.87096
300.89033
300.85235
300.92019
300.93259
300.8829
300.89764
300.92996
300.9111
300.90437
300.90076
300.92803
300.91753
300.92083
300.91025
300.90774
300.77663
300.8889
300.88868
300.88851
300.88822
300.87099
300.86175
300.8839
300.84845
300.92566
300.86887
300.94024
300.90701
300.89721
300.8928
300.90275
300.90271
300.89805
300.8968
300.89214
300.76125
300.86834
300.86875
300.86653
300.85622
300.88271
300.86724
300.88392
300.88814
300.87992
300.88046
300.90272
300.88702
300.88558
300.88445
300.88538
300.88445
300.88026
300.88692
300.87486
300.74734
300.86492
300.86322
300.86049
300.85893
300.87191
300.8626
300.86834
300.85072
300.89115
300.87602
300.87867
300.87434
300.87615
300.87301
300.87587
300.87504
300.87354
300.87846
300.86502
300.7375
300.86063
300.86099
300.86205
300.86413
300.85805
300.85867
300.85629
300.85492
300.86895
300.8624
300.86264
300.86387
300.86441
300.8654
300.86659
300.86863
300.86893
300.86733
300.85743
300.73165
300.85332
300.85325
300.85335
300.8524
300.85255
300.85319
300.85279
300.85224
300.85518
300.85395
300.85572
300.85732
300.85853
300.85823
300.86047
300.86136
300.86286
300.86238
300.85038
300.72559
300.84682
300.84651
300.84696
300.84641
300.84789
300.84767
300.8474
300.84748
300.84916
300.84873
300.85263
300.85075
300.85169
300.85187
300.85281
300.85364
300.85398
300.85315
300.84801
300.7211
301.34155
301.34454
301.34274
301.33799
301.33841
301.33333
301.33376
301.33535
301.33258
301.32873
301.32896
301.32167
301.31456
301.31034
301.30726
301.31362
301.31028
301.3124
301.30686
301.20504
301.3175
301.31645
301.3143
301.31522
301.31643
301.30998
301.30656
301.315
301.30931
301.31621
301.32874
301.31483
301.29573
301.28593
301.28126
301.26992
301.26503
301.23695
301.2685
301.15353
301.29872
301.29796
301.29828
301.2939
301.2995
301.29956
301.31365
301.28155
301.30234
301.35422
301.36443
301.39295
301.22712
301.21936
301.20443
301.10635
301.303
301.16378
301.1517
300.96937
301.34717
301.24378
301.26203
301.27078
301.28099
301.28961
301.25396
301.24882
301.3545
301.80425
301.52135
303.10952
299.34296
301.00296
300.7542
300.9433
301.08779
301.09672
300.84596
300.76027
301.2169
301.19471
301.24994
301.22892
301.20537
301.15268
301.1546
300.85219
300.72266
297.62226
305.61138
305.47992
298.16231
302.47251
299.26302
301.04171
300.19752
300.77036
300.48219
300.59627
301.20414
301.22184
301.22546
301.22395
301.23324
301.2646
301.46425
301.93072
300.38227
300.08554
301.90272
302.01224
301.33915
302.29702
300.3229
301.2523
300.18984
300.71547
300.44278
300.58422
301.18462
301.18976
301.19479
301.19071
301.18258
301.17322
301.24102
301.25897
301.24073
301.34122
300.9516
302.32234
300.28851
301.40817
300.67201
301.03021
300.87275
301.01793
300.82346
300.8185
301.16551
301.16585
301.16368
301.15524
301.1409
301.11598
301.12722
301.05259
301.17963
301.18029
300.94589
301.36198
300.9492
301.22915
300.93762
300.96338
301.27168
301.26801
301.07081
301.03159
301.14115
301.14563
301.14189
301.13355
301.12186
301.0897
301.05454
300.93992
300.82892
300.0418
302.27262
301.35166
301.37002
301.22748
301.03382
300.96844
301.356
301.31978
301.28483
301.12671
301.12326
301.12594
301.12536
301.12079
301.12936
301.10491
301.06431
300.99063
300.86746
300.42885
301.93742
301.29899
301.32942
301.16511
301.18544
301.08997
301.35591
301.31062
301.30058
301.12873
301.10284
301.10404
301.10597
301.10192
301.10114
301.0606
301.02705
300.9561
300.89534
300.42904
301.78454
301.19512
301.37264
301.16632
301.284
301.17934
301.30738
301.26422
301.25645
301.07928
301.0775
301.07706
301.07115
301.06591
301.0506
301.01549
300.94985
300.76975
301.11439
300.98245
301.30387
301.02014
301.55498
301.2639
301.25354
301.17146
301.24018
301.20346
301.18338
301.03407
301.05758
301.05739
301.05234
301.04264
301.02749
300.98464
300.91511
300.69554
300.86796
299.90364
302.48206
301.25264
301.5
301.26015
301.20619
301.15082
301.16616
301.14355
301.12462
300.98716
301.03067
301.02812
301.02135
300.999
301.00894
300.95072
300.89051
300.72417
300.94712
300.17389
302.24822
301.38729
301.3005
301.19485
301.13001
301.11088
301.10444
301.0972
301.07867
300.947
300.99593
300.99937
300.99243
300.96208
301.03037
300.96371
300.89769
300.73818
300.97302
300.42115
301.90709
301.3464
301.10722
301.09982
301.0736
301.07074
301.06568
301.06875
301.04632
300.92122
300.98184
300.98325
300.98024
300.97081
300.95135
300.83042
300.93646
300.71458
300.98199
300.33431
301.89601
301.1941
301.20679
301.1227
301.04417
301.04601
301.04654
301.04424
301.02303
300.89883
300.93473
300.93165
300.93239
300.86199
300.84999
300.67196
301.16287
300.81927
300.90837
300.17815
302.02601
301.15556
301.29156
301.14101
301.02192
301.01573
301.03329
301.02795
301.01
300.88249
300.93707
300.9389
300.92815
300.89777
300.86393
300.7438
301.06735
300.81625
300.82115
300.11751
302.1168
301.27088
301.20905
301.11989
300.98652
300.99467
301.01354
301.01184
300.98259
300.85472
300.92491
300.9276
300.92046
300.89558
300.87024
300.76481
300.87867
300.60076
301.01268
300.24515
302.01976
301.30512
301.04369
301.02697
300.9712
300.97795
300.99389
300.98738
300.9688
300.84389
300.92814
300.92516
300.92551
300.90324
300.89808
300.83863
300.86193
300.68272
301.09465
300.94567
301.40557
301.12511
301.01891
300.98935
300.96573
300.94809
300.98346
300.97154
300.97303
300.83359
300.9302
300.93463
300.93486
300.92237
300.91712
300.89572
300.86652
300.81978
300.97747
300.84695
301.21029
301.04963
300.97526
300.97215
300.91017
300.93618
300.94541
300.94616
300.94063
300.80904
300.92215
300.9251
300.92459
300.92187
300.93493
300.95061
300.8993
300.97221
300.90189
300.97531
300.92289
300.97936
300.90478
300.93547
300.89123
300.9357
300.91311
300.92225
300.91079
300.78668
300.89768
300.89774
300.89375
300.88072
300.89611
300.8633
300.93521
300.9002
300.9314
300.84025
301.00412
300.95548
300.89944
300.91472
300.90193
300.92632
300.90538
300.9109
300.89521
300.77132
300.88807
300.88659
300.88308
300.87779
300.86062
300.82531
300.83183
300.64033
301.14901
300.88997
300.99688
300.9331
300.90759
300.90693
300.90343
300.91224
300.90293
300.90822
300.88835
300.76485
300.88889
300.8898
300.89034
300.89429
300.87489
300.88454
300.85207
300.85684
300.93517
300.90175
300.91045
300.90248
300.89669
300.89673
300.89189
300.89084
300.90049
300.89512
300.89014
300.76251
300.87036
300.87242
300.87144
300.86871
300.86699
300.85334
300.84022
300.77118
300.99009
300.9086
300.88913
300.8866
300.88418
300.88132
300.87695
300.87259
300.88636
300.88466
300.88512
300.75463
300.86444
300.86451
300.86407
300.86301
300.86072
300.85931
300.86496
300.85602
300.89177
300.87743
300.87714
300.87217
300.87352
300.8709
300.87011
300.86765
300.87576
300.87611
300.87241
300.74329
300.8538
300.85486
300.85474
300.85042
300.86177
300.85542
300.86507
300.86064
300.86099
300.86034
300.86513
300.86093
300.86442
300.86372
300.8657
300.86535
300.86836
300.86552
300.86063
300.73268
300.84966
300.84981
300.84984
300.84979
300.85188
300.85074
300.85301
300.85211
300.85313
300.85351
300.85509
300.85644
300.85771
300.8577
300.86009
300.85913
300.86081
300.85819
300.85223
300.72503
300.84569
300.84596
300.846
300.84927
300.84147
300.84374
300.84367
300.84365
300.84599
300.84641
300.84892
300.84906
300.85067
300.85179
300.85005
300.8481
300.84749
300.85243
300.84663
300.72354
301.33514
301.33602
301.3383
301.33718
301.33451
301.33866
301.3378
301.32338
301.32579
301.32431
301.32948
301.32103
301.32061
301.32178
301.33193
301.3467
301.39612
301.47041
301.08533
301.02048
301.32281
301.32566
301.32132
301.3149
301.31437
301.30831
301.3184
301.3168
301.31273
301.30843
301.31768
301.30301
301.31142
301.31377
301.32817
301.31915
301.25983
301.28399
301.11922
300.99898
301.30276
301.30212
301.30235
301.29859
301.30533
301.28987
301.30077
301.30667
301.30233
301.32817
301.40309
301.29714
301.29472
301.38699
301.52274
302.11601
300.11409
300.78399
300.77622
300.75681
301.24516
301.27142
301.26595
301.28819
301.30267
301.23505
301.242
301.18877
301.39076
301.47881
302.08417
301.15252
300.91617
301.25674
301.11673
301.33343
300.75342
300.91256
301.0272
300.98413
301.20489
301.23379
301.23111
301.24469
301.22898
301.15859
301.07548
300.751
301.49871
300.62262
302.23336
300.34751
302.58216
301.36949
301.42755
301.09685
300.79078
300.62258
301.45539
301.27368
301.20205
301.20865
301.20441
301.20125
301.19282
301.16208
301.1795
301.04917
302.32161
303.68437
298.8571
302.23539
300.40965
302.83322
298.6512
300.46119
300.14174
300.49449
300.90932
300.84973
301.17623
301.17839
301.17305
301.15931
301.13818
301.08795
301.12071
300.88009
301.55003
300.70905
301.62444
300.30582
302.80812
302.1641
300.50401
300.91117
300.55629
300.73135
300.86661
300.82877
301.15425
301.15344
301.14868
301.13527
301.10651
301.0507
301.07117
300.86508
301.22884
300.47323
301.98789
300.66791
302.29267
301.82322
300.75816
300.97388
300.87594
300.96053
300.94646
300.92004
301.13558
301.1324
301.12712
301.1169
301.09637
301.0323
301.02447
300.75497
300.72246
299.42035
302.91405
301.4883
301.79304
301.5302
300.99981
301.06972
301.0447
301.09595
301.0472
300.995
301.11748
301.11541
301.11466
301.10347
301.09402
301.05707
301.03178
300.81842
300.77803
299.80201
302.69106
301.5469
301.50967
301.31231
301.16973
301.1373
301.18172
301.17409
301.1865
301.03104
301.09776
301.0956
301.09746
301.0914
301.08181
301.04727
301.02253
300.91398
300.75128
299.94438
302.487
301.56934
301.2539
301.21016
301.202
301.16423
301.19964
301.18385
301.19018
301.02833
301.07514
301.07296
301.06568
301.05401
301.05282
301.00798
301.01561
300.89729
300.71529
299.92615
302.32271
301.39543
301.33798
301.2285
301.17328
301.13901
301.16758
301.14974
301.15755
301.00667
301.04785
301.05681
301.04915
301.04427
301.03565
301.00027
300.99737
300.85352
300.66809
299.96263
302.36676
301.41882
301.28526
301.1883
301.14646
301.11533
301.12706
301.10893
301.11941
300.97577
301.03052
301.03029
301.03125
301.01944
301.02034
300.99003
300.9529
300.81375
300.89481
300.37673
301.85265
301.17854
301.35591
301.17763
301.14284
301.1203
301.10234
301.09537
301.08054
300.94508
301.00775
301.00819
301.00865
301.0051
300.99281
300.96633
300.91334
300.78543
300.98723
300.56656
301.69384
301.03924
301.44731
301.13483
301.19369
301.10548
301.11909
301.08339
301.0666
300.93302
300.99648
300.99685
301.00651
300.99634
300.98205
300.94558
300.88101
300.72992
300.9961
300.49503
301.6652
301.06814
301.35236
301.11946
301.16405
301.07682
301.10223
301.06194
301.05695
300.92278
300.96062
300.9598
300.95251
300.93086
300.94112
300.90527
300.97754
300.85228
300.88395
300.50357
301.58941
300.8968
301.45008
301.15729
301.12239
301.05372
301.07132
301.03993
301.03825
300.89834
300.94797
300.94999
300.94215
300.92441
300.92813
300.89801
300.95475
300.85288
300.84883
300.44937
301.57743
300.91105
301.47031
301.16217
301.10524
301.03914
301.03965
301.0189
301.01423
300.87541
300.92492
300.92486
300.92384
300.89105
300.85969
300.78059
301.05638
300.94639
300.91142
300.83014
301.27364
300.92468
301.35608
301.06347
301.09185
301.0127
301.01763
300.9965
300.99754
300.86314
300.92634
300.92841
300.92845
300.8973
300.88029
300.81393
301.00855
300.90829
300.99396
300.90007
301.14159
301.01357
300.99436
300.96319
301.0272
300.97182
300.9905
300.97009
300.97162
300.84022
300.93492
300.93611
300.93943
300.93028
300.92497
300.93235
300.93857
300.97872
300.90481
300.92636
301.0141
300.98015
300.9097
300.94689
300.92144
300.92896
300.93765
300.93781
300.94264
300.81505
300.91672
300.91876
300.9174
300.91414
300.90434
300.88913
300.87564
300.79527
301.03189
300.86772
301.03704
300.95675
300.90523
300.92668
300.90795
300.91618
300.9169
300.91816
300.91833
300.79203
300.89724
300.89663
300.8931
300.88299
300.88391
300.85846
300.90216
300.84004
301.00583
300.94256
300.93327
300.92298
300.91022
300.91527
300.90888
300.91555
300.90786
300.91113
300.90196
300.7755
300.88254
300.88136
300.87921
300.87185
300.87878
300.86604
300.8873
300.86474
300.94875
300.89033
300.94056
300.91339
300.91009
300.90644
300.90423
300.91081
300.89912
300.9041
300.89303
300.76571
300.87174
300.87236
300.8758
300.86636
300.87226
300.84828
300.88833
300.84099
300.93994
300.87949
300.92942
300.90051
300.89229
300.88914
300.89015
300.88925
300.89776
300.89802
300.88792
300.75761
300.86616
300.86555
300.86935
300.8648
300.8655
300.85271
300.85676
300.81502
300.9461
300.89364
300.89712
300.88472
300.88151
300.87699
300.87575
300.87327
300.8859
300.88392
300.87689
300.74942
300.86418
300.8643
300.86463
300.86491
300.86334
300.86377
300.86598
300.87395
300.8681
300.86891
300.87244
300.87014
300.87105
300.86825
300.86811
300.86807
300.87448
300.87254
300.86655
300.74113
300.85443
300.85493
300.85467
300.85391
300.85558
300.85407
300.86185
300.86084
300.85537
300.85728
300.86259
300.86169
300.86338
300.86333
300.86419
300.86401
300.86522
300.86527
300.85756
300.7304
300.84881
300.84874
300.8486
300.84768
300.84826
300.84789
300.85042
300.8495
300.85026
300.85044
300.85326
300.85318
300.85451
300.85556
300.85685
300.85714
300.85788
300.85711
300.8515
300.72313
300.84294
300.84323
300.84236
300.84268
300.8431
300.84306
300.84283
300.84328
300.84331
300.8438
300.84635
300.84693
300.84896
300.84937
300.84988
300.85047
300.8518
300.85399
300.84437
300.71789
301.33449
301.33319
301.33007
301.32887
301.33227
301.33135
301.32875
301.33074
301.32877
301.32339
301.32444
301.32031
301.31358
301.30889
301.31173
301.32725
301.34468
301.42358
301.38429
301.26193
301.32421
301.32032
301.31495
301.31262
301.31575
301.30362
301.30102
301.30303
301.30152
301.29839
301.31392
301.31958
301.31256
301.25529
301.26497
301.28432
301.31543
301.33321
301.265
301.13798
301.30206
301.30001
301.29703
301.29674
301.3013
301.29641
301.31816
301.22969
301.27063
301.29394
301.37437
301.44144
301.48874
300.89999
301.05691
301.16864
301.32545
301.41906
300.93679
301.01307
301.29562
301.31114
301.3213
301.24598
301.2712
301.2783
301.29313
301.20552
301.27221
301.27223
301.70805
302.39534
300.07716
300.76255
300.80471
300.36795
301.42209
301.32029
301.51255
301.38728
301.2554
301.26778
301.27318
301.27957
301.2824
301.33361
301.31311
301.48794
301.44021
302.79815
299.21458
300.25968
302.54848
301.44108
300.98512
300.94785
300.44215
300.91377
301.05957
301.04487
301.21462
301.21738
301.2198
301.22452
301.22889
301.24277
301.21554
301.25292
301.62824
302.0131
300.7536
302.74444
300.26361
303.09754
298.72644
300.60474
299.57765
300.45409
300.61383
300.58755
301.17846
301.17967
301.18102
301.17554
301.17149
301.15631
301.14649
301.10374
301.88773
303.11406
299.06625
300.84734
301.65715
301.98556
300.46611
300.87299
300.33303
300.73695
300.68885
300.69194
301.1481
301.14959
301.14679
301.12869
301.10619
301.0565
301.07412
300.89374
301.25756
300.95926
301.49371
302.23501
300.15626
301.02666
300.94806
301.02337
300.88096
301.00595
300.93339
300.86835
301.1245
301.12416
301.11638
301.09629
301.06671
300.99803
301.09056
300.85238
300.94957
300.32616
301.92112
300.84063
301.89256
301.36035
301.21352
301.08023
301.21714
301.1922
301.16986
301.02111
301.10425
301.10428
301.09999
301.0863
301.05794
301.00334
301.08573
300.88216
300.79208
299.77261
302.56676
301.33902
301.62656
301.31566
301.29508
301.12201
301.32398
301.25911
301.2585
301.07668
301.06989
301.07865
301.06692
301.04874
301.08432
301.04962
301.03302
300.92011
300.82537
300.211
301.99613
300.73612
302.16918
301.47137
301.32031
301.20659
301.24112
301.21573
301.21065
301.04945
301.04922
301.05753
301.04058
301.01996
301.06533
301.00821
300.98152
300.82954
300.90185
300.25259
302.00257
301.15295
301.64704
301.32627
301.21431
301.15944
301.15189
301.1399
301.15453
301.00941
301.04913
301.04846
301.03994
301.03139
301.04667
301.00386
300.99025
300.88787
300.81404
300.18054
302.08062
301.37749
301.27218
301.17712
301.15791
301.12053
301.11948
301.10435
301.09978
300.96868
301.0243
301.0206
301.01854
301.00342
300.99179
300.91787
301.0882
300.96666
300.94885
300.85555
301.3489
301.20949
301.15131
301.1191
301.103
301.09777
301.09267
301.08613
301.05949
300.93362
301.00961
301.00831
301.00857
300.99544
300.98393
300.94427
301.01792
300.9229
300.93362
300.65526
301.49788
301.18408
301.12272
301.08277
301.0886
301.07944
301.06418
301.05975
301.03597
300.9111
300.98799
300.99032
301.00673
300.98754
300.99171
300.96943
300.96081
300.90754
301.06281
301.02963
301.16473
301.1474
301.03037
301.05255
301.05467
301.04977
301.02766
301.02905
301.01414
300.88773
300.96169
300.96597
300.96205
300.93927
300.98167
300.95045
300.99685
300.96643
300.97364
300.91427
301.12599
300.98198
301.14907
301.10364
300.99571
301.01491
300.98608
300.99596
300.98955
300.8579
300.94186
300.93966
300.93484
300.9102
300.90952
300.83174
300.99173
300.84639
301.06533
300.91499
301.12042
301.00654
301.14733
301.0993
300.96675
300.99594
300.95476
300.97001
300.9652
300.83798
300.93406
300.9337
300.92543
300.90036
300.89118
300.82386
300.89661
300.58791
301.21189
300.71912
301.36058
301.10764
301.01802
301.00555
300.95633
300.96683
300.94874
300.95861
300.95632
300.82792
300.93473
300.94098
300.94483
300.94264
300.92918
300.93404
300.94249
300.94682
300.97192
300.96885
301.12124
301.10586
300.86693
300.97116
300.87997
300.91721
300.93352
300.94398
300.93516
300.80796
300.9279
300.92336
300.92057
300.91207
300.91818
300.89295
300.88518
300.81828
301.16325
301.28197
300.66859
300.927
300.86285
300.93917
300.86391
300.90232
300.91398
300.92492
300.91236
300.79099
300.91089
300.90787
300.90689
300.89847
300.90279
300.87461
300.89117
300.85483
301.02686
300.9811
300.85619
300.9164
300.88643
300.90817
300.89783
300.90797
300.90823
300.91417
300.90312
300.78241
300.884
300.8835
300.88443
300.87422
300.89768
300.87592
300.8848
300.82553
300.99163
300.87847
300.97433
300.92066
300.89933
300.89417
300.91926
300.91613
300.91586
300.91408
300.90468
300.77577
300.87239
300.8711
300.86871
300.85534
300.85022
300.78337
301.0059
300.96039
300.87816
300.88802
300.92172
300.90264
300.89685
300.89108
300.91189
300.90291
300.91409
300.90918
300.89983
300.767
300.85659
300.85439
300.87799
300.8684
300.86833
300.84683
300.90295
300.87323
300.9005
300.87636
300.90776
300.89057
300.88748
300.88166
300.89372
300.89069
300.89569
300.89385
300.88602
300.75508
300.85947
300.85762
300.86858
300.86413
300.86292
300.85435
300.87121
300.83812
300.91218
300.87717
300.88621
300.87989
300.87579
300.87403
300.87425
300.8737
300.87783
300.87801
300.87131
300.74573
300.85728
300.85803
300.86029
300.85784
300.85924
300.85686
300.86973
300.86662
300.8633
300.86259
300.86761
300.86515
300.86394
300.86278
300.86361
300.86482
300.86854
300.86759
300.86343
300.73715
300.8501
300.84953
300.84978
300.84815
300.85489
300.85228
300.85577
300.85617