/*--------------------------------*- C++ -*----------------------------------*\
| =========                 |                                                 |
| \\      /  F ield         | OpenFOAM: The Open Source CFD Toolbox           |
|  \\    /   O peration     | Version:  2.1.0                                 |
|   \\  /    A nd           | Web:      www.OpenFOAM.org                      |
|    \\/     M anipulation  |                                                 |
\*---------------------------------------------------------------------------*/
FoamFile
{
    version     2.0;
    format      ascii;
    class       volScalarField;
    location    "10000";
    object      k;
}
// * * * * * * * * * * * * * * * * * * * * * * * * * * * * * * * * * * * * * //

dimensions      [0 2 -2 0 0 0 0];

internalField   nonuniform List<scalar> 
15000
(
9.54869
0.926286
0.051346
0.00101655
6.40333e-05
1.19768e-05
1.0057e-05
1.00046e-05
9.99992e-06
9.99968e-06
9.9999e-06
9.99983e-06
9.99948e-06
9.99969e-06
9.99989e-06
9.99974e-06
9.9997e-06
9.99991e-06
9.99991e-06
9.99991e-06
9.9999e-06
9.9997e-06
9.9997e-06
9.9995e-06
9.99951e-06
1.00022e-05
1.0002e-05
1.00034e-05
1.0002e-05
1.00019e-05
1.00009e-05
1.00019e-05
1.0001e-05
1.00008e-05
1.0002e-05
1.0002e-05
1.00009e-05
1.0001e-05
1.0002e-05
1.00009e-05
1.0002e-05
1.00021e-05
1.00012e-05
1.00146e-05
1.0648e-05
4.86069e-05
0.00151082
0.052384
0.930969
9.5481
12.1456
1.59931
0.158035
0.00691128
5.37077e-05
1.17074e-05
1.00488e-05
1.0004e-05
9.99888e-06
9.99889e-06
9.99877e-06
9.9989e-06
1.0001e-05
9.99895e-06
9.99883e-06
9.99922e-06
9.99896e-06
9.99884e-06
9.99884e-06
9.99885e-06
9.99887e-06
9.9993e-06
9.99929e-06
1.00011e-05
1.0001e-05
1.00044e-05
1.00063e-05
1.0003e-05
1.00063e-05
1.00063e-05
1.0007e-05
1.00064e-05
1.00069e-05
1.00071e-05
1.00065e-05
1.00064e-05
1.00072e-05
1.0007e-05
1.00065e-05
1.00073e-05
1.00066e-05
1.00066e-05
1.00072e-05
1.0099e-05
1.58077e-05
0.000275777
0.00708687
0.158475
1.60257
12.1456
11.3363
2.07049
0.270437
0.0162354
0.000646414
2.36059e-05
1.02808e-05
1.00073e-05
1.00005e-05
1.0002e-05
1.00004e-05
1.00006e-05
1.00056e-05
1.00004e-05
1.00004e-05
9.9985e-06
1.00004e-05
1.00005e-05
1.00005e-05
1.00005e-05
1.0002e-05
9.99845e-06
9.99861e-06
1.0006e-05
1.00061e-05
1.00101e-05
1.00063e-05
1.00027e-05
1.00063e-05
1.00061e-05
1.00064e-05
1.00061e-05
1.00062e-05
1.00064e-05
1.00065e-05
1.00062e-05
1.00066e-05
1.00062e-05
1.00063e-05
1.00066e-05
1.00063e-05
1.00065e-05
1.00091e-05
1.00746e-05
1.46583e-05
0.000310535
0.0161232
0.271797
2.07432
11.3394
9.8705
2.59886
0.390444
0.0323695
0.000826197
2.2399e-05
1.02585e-05
1.00067e-05
1.0004e-05
1.00018e-05
1.00052e-05
1.00056e-05
1.00053e-05
1.00054e-05
1.00049e-05
1.00008e-05
1.00052e-05
1.00052e-05
1.00052e-05
1.00051e-05
1.00017e-05
1.00015e-05
1.00007e-05
1.00057e-05
1.00058e-05
1.00096e-05
1.00055e-05
1.0002e-05
1.00053e-05
1.00053e-05
1.00057e-05
1.00054e-05
1.00056e-05
1.00056e-05
1.00056e-05
1.00055e-05
1.00058e-05
1.00057e-05
1.00055e-05
1.00059e-05
1.00081e-05
1.00063e-05
1.00224e-05
1.06253e-05
4.515e-05
0.00150208
0.0328357
0.391116
2.59969
9.87321
8.69179
3.38029
0.565232
0.0505045
0.00257487
7.30893e-05
1.12172e-05
1.00235e-05
1.00068e-05
1.00015e-05
1.00048e-05
1.00054e-05
1.00049e-05
1.00049e-05
1.00043e-05
1.00029e-05
1.00047e-05
1.00048e-05
1.00048e-05
1.00046e-05
1.00014e-05
1.00011e-05
1.00028e-05
1.00054e-05
1.00054e-05
1.00094e-05
1.00087e-05
1.00052e-05
1.00085e-05
1.00086e-05
1.00088e-05
1.00088e-05
1.00089e-05
1.00089e-05
1.0009e-05
1.00089e-05
1.00091e-05
1.00091e-05
1.00077e-05
1.00092e-05
1.0012e-05
1.00062e-05
1.00242e-05
1.06116e-05
4.64489e-05
0.00187477
0.0503991
0.566344
3.38072
8.69352
7.86852
4.19483
0.815562
0.0824023
0.00333395
8.08772e-05
1.1293e-05
1.00246e-05
1.00101e-05
1.00014e-05
1.00063e-05
1.00049e-05
1.00044e-05
1.00079e-05
1.00075e-05
1.00082e-05
1.00077e-05
1.00063e-05
1.00078e-05
1.00074e-05
1.00008e-05
1.00026e-05
1.00078e-05
1.00046e-05
1.00048e-05
1.00086e-05
1.00082e-05
1.00049e-05
1.0008e-05
1.00082e-05
1.00083e-05
1.00083e-05
1.00084e-05
1.00084e-05
1.00085e-05
1.00087e-05
1.00086e-05
1.00088e-05
1.00106e-05
1.00089e-05
1.00145e-05
1.00068e-05
1.0059e-05
1.23763e-05
0.000130205
0.00438595
0.0830357
0.815966
4.19328
7.86933
7.3177
4.93545
1.13768
0.127728
0.00688534
0.000204171
1.399e-05
1.00735e-05
1.0013e-05
1.00014e-05
1.00096e-05
1.00044e-05
1.0006e-05
1.00076e-05
1.00071e-05
1.00078e-05
1.00075e-05
1.00108e-05
1.00074e-05
1.00071e-05
1.00007e-05
1.0007e-05
1.00075e-05
1.00061e-05
1.00056e-05
1.00105e-05
1.00103e-05
1.00069e-05
1.00095e-05
1.00112e-05
1.00098e-05
1.00114e-05
1.001e-05
1.00115e-05
1.00101e-05
1.00082e-05
1.00101e-05
1.00084e-05
1.00143e-05
1.00087e-05
1.00183e-05
1.00069e-05
1.00657e-05
1.26827e-05
0.00015221
0.00577638
0.127529
1.13838
4.9349
7.31802
6.95283
5.51012
1.54333
0.201858
0.00955674
0.000253239
1.47561e-05
1.00858e-05
1.00168e-05
1.00015e-05
1.00115e-05
1.00043e-05
1.00092e-05
1.00073e-05
1.0009e-05
1.00076e-05
1.00104e-05
1.00103e-05
1.00102e-05
1.0006e-05
1.00004e-05
1.00066e-05
1.00072e-05
1.00093e-05
1.00077e-05
1.00127e-05
1.00123e-05
1.00089e-05
1.00138e-05
1.00109e-05
1.00144e-05
1.00111e-05
1.00133e-05
1.00113e-05
1.00133e-05
1.0008e-05
1.00134e-05
1.00082e-05
1.00166e-05
1.00087e-05
1.00202e-05
1.00088e-05
1.01491e-05
1.69808e-05
0.00033179
0.0107853
0.202632
1.5435
5.5086
6.95278
6.70428
5.90571
1.9668
0.310476
0.0178701
0.00053156
2.11581e-05
1.0209e-05
1.00197e-05
1.0002e-05
1.00148e-05
1.00043e-05
1.00118e-05
1.0007e-05
1.00111e-05
1.00072e-05
1.00102e-05
1.00131e-05
1.00098e-05
1.00085e-05
1.00004e-05
1.00093e-05
1.00068e-05
1.00117e-05
1.00113e-05
1.00166e-05
1.00172e-05
1.00138e-05
1.00137e-05
1.00138e-05
1.00139e-05
1.00141e-05
1.00158e-05
1.0011e-05
1.00161e-05
1.0008e-05
1.00156e-05
1.00082e-05
1.00198e-05
1.0009e-05
1.00236e-05
1.00097e-05
1.01768e-05
1.86139e-05
0.000434933
0.0164904
0.31012
1.96716
5.9055
6.70416
6.52858
6.17131
2.40028
0.456874
0.027556
0.000732159
2.42345e-05
1.02609e-05
1.00256e-05
1.00023e-05
1.00165e-05
1.00044e-05
1.00148e-05
1.0007e-05
1.00144e-05
1.00071e-05
1.00129e-05
1.00127e-05
1.00125e-05
1.00078e-05
1.00003e-05
1.00088e-05
1.00066e-05
1.00152e-05
1.00135e-05
1.00186e-05
1.0017e-05
1.00135e-05
1.00131e-05
1.00134e-05
1.00167e-05
1.00138e-05
1.00191e-05
1.0011e-05
1.00188e-05
1.00082e-05
1.00187e-05
1.00083e-05
1.00217e-05
1.00092e-05
1.00252e-05
1.00126e-05
1.03611e-05
2.836e-05
0.000862536
0.0290488
0.457757
2.4004
6.17016
6.52832
6.39845
6.33699
2.80527
0.647207
0.0485264
0.00144073
3.91928e-05
1.05397e-05
1.00289e-05
1.00032e-05
1.00195e-05
1.00049e-05
1.00169e-05
1.00071e-05
1.00161e-05
1.0007e-05
1.00127e-05
1.00154e-05
1.0012e-05
1.00101e-05
1.00003e-05
1.00113e-05
1.00064e-05
1.0015e-05
1.00169e-05
1.00233e-05
1.00165e-05
1.00162e-05
1.00158e-05
1.00162e-05
1.00163e-05
1.00167e-05
1.00212e-05
1.00142e-05
1.00212e-05
1.00084e-05
1.00205e-05
1.00087e-05
1.00245e-05
1.00098e-05
1.00288e-05
1.00169e-05
1.045e-05
3.4306e-05
0.00126676
0.0472362
0.646672
2.80526
6.33721
6.39828
6.31636
6.44796
3.16072
0.867181
0.0773178
0.00220663
5.03964e-05
1.07036e-05
1.00302e-05
1.00036e-05
1.0021e-05
1.00052e-05
1.00196e-05
1.00073e-05
1.0019e-05
1.00071e-05
1.00154e-05
1.0015e-05
1.00145e-05
1.00094e-05
1.00003e-05
1.00107e-05
1.00062e-05
1.00146e-05
1.00191e-05
1.00231e-05
1.00193e-05
1.00159e-05
1.00156e-05
1.00158e-05
1.00177e-05
1.00164e-05
1.00245e-05
1.00143e-05
1.00239e-05
1.00089e-05
1.00232e-05
1.0009e-05
1.0026e-05
1.00101e-05
1.00282e-05
1.00296e-05
1.08643e-05
5.84244e-05
0.00246765
0.0787579
0.868074
3.16089
6.44704
6.31605
6.22295
6.51896
3.47856
1.11192
0.123989
0.00429641
9.1412e-05
1.13735e-05
1.00386e-05
1.00065e-05
1.00244e-05
1.00059e-05
1.00213e-05
1.00078e-05
1.00203e-05
1.00071e-05
1.00151e-05
1.00175e-05
1.00141e-05
1.00114e-05
1.00004e-05
1.0013e-05
1.00059e-05
1.00143e-05
1.00224e-05
1.00227e-05
1.0019e-05
1.00185e-05
1.00152e-05
1.00184e-05
1.00203e-05
1.00192e-05
1.00261e-05
1.00175e-05
1.00259e-05
1.00094e-05
1.00247e-05
1.00097e-05
1.00285e-05
1.00109e-05
1.0027e-05
1.00364e-05
1.11627e-05
8.02025e-05
0.00390194
0.122796
1.11136
3.47837
6.51942
6.2229
6.15865
6.56946
3.76183
1.37422
0.185482
0.0067633
0.000131264
1.19065e-05
1.0045e-05
1.00088e-05
1.00236e-05
1.00062e-05
1.00238e-05
1.00081e-05
1.00235e-05
1.00073e-05
1.00176e-05
1.00172e-05
1.00164e-05
1.00107e-05
1.00004e-05
1.00124e-05
1.00057e-05
1.0014e-05
1.00245e-05
1.00224e-05
1.00216e-05
1.00182e-05
1.00177e-05
1.0018e-05
1.0023e-05
1.0019e-05
1.003e-05
1.00176e-05
1.00285e-05
1.001e-05
1.00271e-05
1.00101e-05
1.00297e-05
1.00113e-05
1.00258e-05
1.00574e-05
1.22043e-05
0.000145605
0.00714241
0.186868
1.37497
3.7618
6.56865
6.15837
6.1108
6.60769
3.99438
1.64955
0.27167
0.0126741
0.00025221
1.36818e-05
1.00686e-05
1.00134e-05
1.00227e-05
1.00098e-05
1.00252e-05
1.00114e-05
1.00224e-05
1.00074e-05
1.00174e-05
1.00195e-05
1.0016e-05
1.00126e-05
1.00006e-05
1.00145e-05
1.00055e-05
1.00138e-05
1.00275e-05
1.0022e-05
1.00212e-05
1.00206e-05
1.00175e-05
1.00204e-05
1.00252e-05
1.00217e-05
1.00293e-05
1.00208e-05
1.00302e-05
1.00107e-05
1.00284e-05
1.00109e-05
1.00325e-05
1.00134e-05
1.00245e-05
1.00715e-05
1.31387e-05
0.000221124
0.0118905
0.270551
1.64888
3.99407
6.6082
6.11076
6.07345
6.63448
4.17361
1.92467
0.378393
0.0193744
0.00038259
1.53564e-05
1.00887e-05
1.00155e-05
1.00215e-05
1.00101e-05
1.00284e-05
1.00116e-05
1.00241e-05
1.00077e-05
1.00197e-05
1.00192e-05
1.00182e-05
1.00119e-05
1.00007e-05
1.0014e-05
1.00053e-05
1.00136e-05
1.00294e-05
1.00217e-05
1.00236e-05
1.00204e-05
1.00199e-05
1.00201e-05
1.00279e-05
1.00217e-05
1.00314e-05
1.00208e-05
1.00328e-05
1.00114e-05
1.00306e-05
1.00113e-05
1.00319e-05
1.00172e-05
1.00241e-05
1.01131e-05
1.59077e-05
0.000411548
0.0201506
0.379676
1.92545
4.17376
6.63371
6.0732
6.04388
6.65282
4.32496
2.17956
0.510008
0.0346574
0.000750188
2.03853e-05
1.0151e-05
1.00199e-05
1.00209e-05
1.00134e-05
1.00273e-05
1.00134e-05
1.0023e-05
1.00079e-05
1.00195e-05
1.00214e-05
1.00178e-05
1.00137e-05
1.00009e-05
1.00159e-05
1.00051e-05
1.00134e-05
1.00323e-05
1.00214e-05
1.00233e-05
1.00227e-05
1.00196e-05
1.00223e-05
1.00297e-05
1.00243e-05
1.00308e-05
1.00237e-05
1.00341e-05
1.00122e-05
1.00317e-05
1.00134e-05
1.00304e-05
1.002e-05
1.00242e-05
1.01487e-05
1.88257e-05
0.000653825
0.0326156
0.509018
2.17906
4.32453
6.65327
6.04384
6.02005
6.66362
4.44188
2.40377
0.650321
0.0492819
0.00114199
2.55825e-05
1.02102e-05
1.00222e-05
1.00201e-05
1.00136e-05
1.00292e-05
1.00158e-05
1.00247e-05
1.00082e-05
1.00217e-05
1.00211e-05
1.00199e-05
1.00129e-05
1.0001e-05
1.00156e-05
1.0005e-05
1.00133e-05
1.00341e-05
1.00211e-05
1.00255e-05
1.00224e-05
1.00219e-05
1.00221e-05
1.00324e-05
1.00243e-05
1.00329e-05
1.00238e-05
1.00373e-05
1.00129e-05
1.00342e-05
1.00168e-05
1.00296e-05
1.00233e-05
1.00249e-05
1.0248e-05
2.67826e-05
0.0012221
0.0513684
0.651513
2.40443
4.44212
6.66308
6.01985
6.00056
6.66976
4.53896
2.60105
0.804266
0.0788422
0.00212458
3.97949e-05
1.03775e-05
1.00271e-05
1.00196e-05
1.00166e-05
1.00284e-05
1.00189e-05
1.00237e-05
1.00085e-05
1.00214e-05
1.00232e-05
1.00195e-05
1.00146e-05
1.00033e-05
1.00147e-05
1.00048e-05
1.00132e-05
1.00367e-05
1.00209e-05
1.00252e-05
1.00246e-05
1.00217e-05
1.00242e-05
1.00338e-05
1.00268e-05
1.00323e-05
1.00264e-05
1.00364e-05
1.00139e-05
1.0033e-05
1.00198e-05
1.00286e-05
1.00255e-05
1.00259e-05
1.03477e-05
3.56595e-05
0.00190732
0.0767996
0.80336
2.6006
4.53863
6.66992
6.0005
5.98392
6.67004
4.61762
2.77147
0.954919
0.108488
0.00317421
5.49469e-05
1.05486e-05
1.00303e-05
1.00192e-05
1.00167e-05
1.00304e-05
1.00209e-05
1.00253e-05
1.00087e-05
1.00235e-05
1.00229e-05
1.00214e-05
1.0014e-05
1.00034e-05
1.00165e-05
1.00047e-05
1.00132e-05
1.00385e-05
1.00205e-05
1.00273e-05
1.00244e-05
1.00238e-05
1.0024e-05
1.0037e-05
1.00268e-05
1.00343e-05
1.00264e-05
1.00382e-05
1.00144e-05
1.00344e-05
1.00226e-05
1.00282e-05
1.00285e-05
1.00289e-05
1.06168e-05
5.89375e-05
0.00344688
0.110611
0.955976
2.77196
4.61772
6.66998
5.98373
5.96927
6.66789
4.68237
2.92012
1.11355
0.154027
0.00559057
9.38603e-05
1.09976e-05
1.00375e-05
1.00188e-05
1.00194e-05
1.00298e-05
1.00237e-05
1.00245e-05
1.00113e-05
1.00233e-05
1.00249e-05
1.0021e-05
1.00156e-05
1.00047e-05
1.00159e-05
1.00045e-05
1.00132e-05
1.00409e-05
1.00203e-05
1.00269e-05
1.00264e-05
1.00236e-05
1.0026e-05
1.00365e-05
1.00293e-05
1.00338e-05
1.00289e-05
1.00374e-05
1.00164e-05
1.00337e-05
1.00254e-05
1.00275e-05
1.00304e-05
1.0032e-05
1.08937e-05
8.35271e-05
0.0050778
0.15209
1.11281
2.91976
4.68245
6.66817
5.96932
5.95662
6.66409
4.73472
3.04533
1.26775
0.200973
0.00792664
0.00013316
1.14489e-05
1.00434e-05
1.0021e-05
1.00195e-05
1.00317e-05
1.00253e-05
1.0026e-05
1.00115e-05
1.00252e-05
1.00246e-05
1.00228e-05
1.0015e-05
1.00066e-05
1.00175e-05
1.00044e-05
1.00132e-05
1.00425e-05
1.00201e-05
1.00289e-05
1.00262e-05
1.00256e-05
1.00258e-05
1.00382e-05
1.00293e-05
1.00357e-05
1.00289e-05
1.00392e-05
1.00193e-05
1.0033e-05
1.00278e-05
1.00273e-05
1.00331e-05
1.004e-05
1.1606e-05
0.000145473
0.00862747
0.203023
1.2688
3.04579
4.73445
6.6629
5.95624
5.94447
6.65585
4.77857
3.15278
1.42515
0.263693
0.013075
0.000231144
1.25862e-05
1.00574e-05
1.0021e-05
1.0022e-05
1.00313e-05
1.0028e-05
1.00253e-05
1.00139e-05
1.0025e-05
1.00265e-05
1.00224e-05
1.00166e-05
1.00088e-05
1.0017e-05
1.00043e-05
1.00132e-05
1.00448e-05
1.002e-05
1.00285e-05
1.00282e-05
1.00255e-05
1.00277e-05
1.00377e-05
1.00315e-05
1.00353e-05
1.00311e-05
1.00385e-05
1.00221e-05
1.00321e-05
1.00301e-05
1.0027e-05
1.00345e-05
1.00477e-05
1.23169e-05
0.00020651
0.0119652
0.26186
1.42443
3.15238
4.7788
6.65711
5.9446
5.93392
6.64999
4.8153
3.24534
1.56939
0.327894
0.0175673
0.000323806
1.3701e-05
1.007e-05
1.00232e-05
1.00221e-05
1.00333e-05
1.00292e-05
1.00268e-05
1.00141e-05
1.00269e-05
1.00262e-05
1.00242e-05
1.00162e-05
1.00105e-05
1.00185e-05
1.00042e-05
1.00133e-05
1.00463e-05
1.00199e-05
1.00303e-05
1.00279e-05
1.00274e-05
1.00275e-05
1.00394e-05
1.00315e-05
1.00371e-05
1.00311e-05
1.00402e-05
1.00246e-05
1.00317e-05
1.00323e-05
1.0027e-05
1.00369e-05
1.00668e-05
1.406e-05
0.000350855
0.0187231
0.329872
1.57036
3.24583
4.81502
6.64859
5.93352
5.92341
6.63983
4.84554
3.32879
1.70415
0.402628
0.0271898
0.00055082
1.6437e-05
1.01011e-05
1.00233e-05
1.00244e-05
1.00329e-05
1.00323e-05
1.00261e-05
1.00163e-05
1.00267e-05
1.0028e-05
1.00238e-05
1.00177e-05
1.00126e-05
1.0018e-05
1.00041e-05
1.00134e-05
1.00485e-05
1.00197e-05
1.003e-05
1.00298e-05
1.00273e-05
1.00294e-05
1.00389e-05
1.00336e-05
1.00368e-05
1.00332e-05
1.00397e-05
1.00272e-05
1.00309e-05
1.00342e-05
1.0027e-05
1.0038e-05
1.00846e-05
1.57362e-05
0.000491635
0.0254245
0.400863
1.70345
3.32841
4.84582
6.64111
5.92351
5.91431
6.63302
4.87101
3.40101
1.8251
0.475708
0.0345487
0.000748419
1.89769e-05
1.0127e-05
1.00256e-05
1.00244e-05
1.00348e-05
1.00319e-05
1.00275e-05
1.00164e-05
1.00284e-05
1.00277e-05
1.00254e-05
1.00173e-05
1.00142e-05
1.00194e-05
1.00041e-05
1.00135e-05
1.00498e-05
1.00196e-05
1.00317e-05
1.00296e-05
1.00292e-05
1.00292e-05
1.00405e-05
1.00335e-05
1.00385e-05
1.00331e-05
1.00413e-05
1.00294e-05
1.00327e-05
1.00361e-05
1.00271e-05
1.00403e-05
1.01277e-05
1.97579e-05
0.000806548
0.036256
0.477639
1.8261
3.40149
4.87073
6.63164
5.91385
5.90499
6.62196
4.89185
3.46684
1.93808
0.556582
0.0499617
0.00122124
2.50988e-05
1.01922e-05
1.00259e-05
1.00266e-05
1.00345e-05
1.00336e-05
1.0027e-05
1.00185e-05
1.00282e-05
1.00293e-05
1.0025e-05
1.00189e-05
1.00161e-05
1.00189e-05
1.0004e-05
1.00136e-05
1.00519e-05
1.00196e-05
1.00314e-05
1.00313e-05
1.00291e-05
1.0031e-05
1.004e-05
1.00354e-05
1.00381e-05
1.00351e-05
1.00408e-05
1.00318e-05
1.00324e-05
1.0038e-05
1.00272e-05
1.00416e-05
1.01666e-05
2.34367e-05
0.00109522
0.0475251
0.554928
1.93746
3.46655
4.89221
6.62326
5.905
5.89698
6.61482
4.91002
3.52423
2.03881
0.633365
0.0606119
0.00159989
3.04706e-05
1.0249e-05
1.00286e-05
1.00266e-05
1.00363e-05
1.00333e-05
1.00283e-05
1.00186e-05
1.00298e-05
1.00291e-05
1.00265e-05
1.00187e-05
1.00175e-05
1.00202e-05
1.00039e-05
1.00138e-05
1.00531e-05
1.00195e-05
1.00329e-05
1.00312e-05
1.00309e-05
1.00308e-05
1.00415e-05
1.00354e-05
1.00398e-05
1.0035e-05
1.00424e-05
1.00336e-05
1.00342e-05
1.00395e-05
1.00274e-05
1.00441e-05
1.02623e-05
3.21249e-05
0.00172002
0.0630432
0.635257
2.03982
3.5247
4.90975
6.6135
5.8964
5.88861
6.60346
4.92479
3.57752
2.13318
0.715493
0.0818924
0.00246934
4.31652e-05
1.03871e-05
1.00295e-05
1.00286e-05
1.0036e-05
1.00349e-05
1.00278e-05
1.00205e-05
1.00296e-05
1.00306e-05
1.0026e-05
1.00185e-05
1.00193e-05
1.00197e-05
1.00038e-05
1.0014e-05
1.0055e-05
1.00194e-05
1.00326e-05
1.0031e-05
1.00309e-05
1.00325e-05
1.00411e-05
1.00372e-05
1.00395e-05
1.00368e-05
1.0042e-05
1.00359e-05
1.0034e-05
1.00413e-05
1.00276e-05
1.00456e-05
1.03439e-05
3.9646e-05
0.00224753
0.0793604
0.714044
2.13271
3.5774
4.92527
6.60477
5.88844
5.88148
6.59654
4.93852
3.62463
2.21713
0.79149
0.0971743
0.00313361
5.37157e-05
1.05043e-05
1.0033e-05
1.00286e-05
1.00376e-05
1.00346e-05
1.00291e-05
1.00206e-05
1.00312e-05
1.00304e-05
1.00274e-05
1.00199e-05
1.00206e-05
1.0021e-05
1.00038e-05
1.00142e-05
1.00562e-05
1.00194e-05
1.00341e-05
1.00308e-05
1.00325e-05
1.00324e-05
1.00425e-05
1.00371e-05
1.0041e-05
1.00368e-05
1.00435e-05
1.00375e-05
1.00358e-05
1.00426e-05
1.0028e-05
1.00489e-05
1.05364e-05
5.7195e-05
0.00336712
0.0997733
0.793395
2.21822
3.62513
4.93829
6.59533
5.88067
5.87392
6.5855
4.94948
3.66917
2.29628
0.871042
0.123377
0.00460016
7.79914e-05
1.07788e-05
1.00347e-05
1.00305e-05
1.00374e-05
1.00361e-05
1.00287e-05
1.00219e-05
1.0031e-05
1.00311e-05
1.00272e-05
1.00198e-05
1.00223e-05
1.00205e-05
1.00038e-05
1.00144e-05
1.0058e-05
1.00193e-05
1.00338e-05
1.00307e-05
1.00324e-05
1.0034e-05
1.00422e-05
1.00388e-05
1.00408e-05
1.00384e-05
1.00431e-05
1.00397e-05
1.00357e-05
1.00443e-05
1.00282e-05
1.00511e-05
1.06966e-05
7.13476e-05
0.00424098
0.121051
0.869957
2.29606
3.66932
4.95017
6.58684
5.87339
5.86754
6.57918
4.96062
3.70823
2.36596
0.94467
0.143491
0.00566382
9.68809e-05
1.09977e-05
1.00396e-05
1.00305e-05
1.00389e-05
1.00357e-05
1.00299e-05
1.00232e-05
1.00325e-05
1.00328e-05
1.00266e-05
1.00213e-05
1.00234e-05
1.00216e-05
1.00037e-05
1.00146e-05
1.0059e-05
1.00193e-05
1.00351e-05
1.00305e-05
1.0034e-05
1.00339e-05
1.00435e-05
1.00387e-05
1.00422e-05
1.00384e-05
1.00445e-05
1.00411e-05
1.00373e-05
1.00454e-05
1.00286e-05
1.00561e-05
1.10694e-05
0.00010375
0.00606987
0.14603
0.946759
2.36721
3.70884
4.9605
6.57812
5.86629
5.86085
6.56881
4.96899
3.74373
2.43129
1.02277
0.173935
0.00794923
0.000139812
1.1501e-05
1.00433e-05
1.00323e-05
1.00387e-05
1.00371e-05
1.00296e-05
1.00254e-05
1.00323e-05
1.00337e-05
1.00278e-05
1.00212e-05
1.0025e-05
1.00212e-05
1.00037e-05
1.00149e-05
1.00607e-05
1.00193e-05
1.00348e-05
1.00319e-05
1.00339e-05
1.00354e-05
1.00432e-05
1.00403e-05
1.0042e-05
1.004e-05
1.00442e-05
1.00431e-05
1.00373e-05
1.0047e-05
1.00289e-05
1.00596e-05
1.13599e-05
0.000128422
0.00740457
0.171892
1.02228
2.4315
3.74429
4.97001
6.57027
5.85962
5.85503
6.56331
4.97827
3.77542
2.48882
1.09389
0.198516
0.00952575
0.000171591
1.18845e-05
1.00493e-05
1.00323e-05
1.00402e-05
1.00368e-05
1.00308e-05
1.00264e-05
1.00323e-05
1.00359e-05
1.00276e-05
1.00226e-05
1.0026e-05
1.00222e-05
1.00037e-05
1.00151e-05
1.00617e-05
1.00193e-05
1.00361e-05
1.00318e-05
1.00354e-05
1.00353e-05
1.00444e-05
1.00402e-05
1.00434e-05
1.00399e-05
1.00456e-05
1.00443e-05
1.00389e-05
1.0048e-05
1.00311e-05
1.00675e-05
1.20255e-05
0.000184253
0.0101712
0.201124
1.09641
2.49041
3.77631
4.97839
6.56242
5.8531
5.84946
6.55369
4.98467
3.80417
2.54297
1.16818
0.23264
0.0128533
0.000243079
1.27545e-05
1.00584e-05
1.0034e-05
1.00399e-05
1.00381e-05
1.00306e-05
1.00283e-05
1.00322e-05
1.00356e-05
1.00274e-05
1.00225e-05
1.00275e-05
1.00218e-05
1.00037e-05
1.00153e-05
1.00632e-05
1.00192e-05
1.00358e-05
1.00332e-05
1.00353e-05
1.00367e-05
1.00441e-05
1.00416e-05
1.00431e-05
1.00409e-05
1.00453e-05
1.00462e-05
1.0039e-05
1.00496e-05
1.00313e-05
1.00733e-05
1.25232e-05
0.000224801
0.0120821
0.231056
1.16865
2.54391
3.80534
4.98622
6.55535
5.84691
5.84384
6.54904
4.99265
3.83035
2.59101
1.23499
0.260977
0.0150465
0.000293718
1.33908e-05
1.00662e-05
1.00341e-05
1.00413e-05
1.00378e-05
1.00318e-05
1.00292e-05
1.00321e-05
1.00368e-05
1.00269e-05
1.00238e-05
1.00284e-05
1.00227e-05
1.00037e-05
1.00156e-05
1.00641e-05
1.00192e-05
1.0037e-05
1.00331e-05
1.00367e-05
1.00367e-05
1.00453e-05
1.00415e-05
1.00445e-05
1.00418e-05
1.00465e-05
1.00472e-05
1.00406e-05
1.00504e-05
1.00335e-05
1.00868e-05
1.36479e-05
0.000315668
0.016013
0.263905
1.23832
2.59325
3.83178
4.99322
6.54838
5.84083
5.83965
6.54023
4.99755
3.85385
2.63635
1.3037
0.297872
0.0196179
0.00040655
1.48162e-05
1.00817e-05
1.00358e-05
1.00411e-05
1.0039e-05
1.00316e-05
1.0031e-05
1.00335e-05
1.00365e-05
1.0028e-05
1.00238e-05
1.00299e-05
1.00223e-05
1.00036e-05
1.00158e-05
1.00655e-05
1.00192e-05
1.00367e-05
1.00344e-05
1.00366e-05
1.0038e-05
1.00451e-05
1.00429e-05
1.00442e-05
1.00442e-05
1.00463e-05
1.0049e-05
1.00406e-05
1.00519e-05
1.00337e-05
1.00948e-05
1.44597e-05
0.000379061
0.0186048
0.29708
1.30568
2.63845
3.856
4.99989
6.54215
5.83499
5.83416
6.53622
5.00452
3.8758
2.67749
1.36413
0.328658
0.0224978
0.000483309
1.58225e-05
1.00936e-05
1.00358e-05
1.0041e-05
1.00387e-05
1.00328e-05
1.00318e-05
1.00335e-05
1.00376e-05
1.00277e-05
1.00251e-05
1.00307e-05
1.00231e-05
1.00036e-05
1.0016e-05
1.00663e-05
1.00192e-05
1.00379e-05
1.00342e-05
1.00378e-05
1.00379e-05
1.00462e-05
1.00428e-05
1.00455e-05
1.0044e-05
1.00475e-05
1.00499e-05
1.00421e-05
1.00527e-05
1.00358e-05
1.0114e-05
1.62697e-05
0.000517782
0.0237068
0.332353
1.36889
2.68094
3.87821
5.0059
6.53597
5.82919
5.83147
6.52828
5.00821
3.89512
2.71693
1.42402
0.36618
0.0284294
0.000652746
1.80548e-05
1.0118e-05
1.00375e-05
1.00406e-05
1.00398e-05
1.00327e-05
1.00335e-05
1.00347e-05
1.00373e-05
1.00288e-05
1.0025e-05
1.0032e-05
1.00227e-05
1.00036e-05
1.00163e-05
1.00676e-05
1.00193e-05
1.00376e-05
1.00354e-05
1.00377e-05
1.00391e-05
1.00459e-05
1.00441e-05
1.00453e-05
1.00453e-05
1.00473e-05
1.0052e-05
1.00422e-05
1.00543e-05
1.00362e-05
1.01289e-05
1.75373e-05
0.000613575
0.0274221
0.366713
1.42814
2.72093
3.89879
5.01174
6.5306
5.82354
5.82636
6.52475
5.01416
3.91374
2.75292
1.47673
0.397416
0.03199
0.00076349
1.95775e-05
1.01356e-05
1.00376e-05
1.00419e-05
1.00395e-05
1.00339e-05
1.00343e-05
1.00346e-05
1.00383e-05
1.00286e-05
1.00262e-05
1.00328e-05
1.00235e-05
1.00036e-05
1.00165e-05
1.00683e-05
1.00192e-05
1.00387e-05
1.00353e-05
1.00389e-05
1.0039e-05
1.0047e-05
1.0044e-05
1.00465e-05
1.00452e-05
1.00485e-05
1.00517e-05
1.00437e-05
1.00546e-05
1.00382e-05
1.01533e-05
2.03406e-05
0.000818389
0.0335659
0.402663
1.48393
2.7584
3.9178
5.01694
6.52517
5.81783
5.82502
6.5176
5.01694
3.92925
2.78685
1.5291
0.434572
0.0390574
0.00100323
2.2922e-05
1.01725e-05
1.00393e-05
1.00417e-05
1.00405e-05
1.00338e-05
1.00362e-05
1.00358e-05
1.0038e-05
1.00295e-05
1.00262e-05
1.0034e-05
1.00231e-05
1.00036e-05
1.00168e-05
1.00695e-05
1.00193e-05
1.00384e-05
1.00365e-05
1.00388e-05
1.00401e-05
1.00468e-05
1.00452e-05
1.00463e-05
1.00464e-05
1.00483e-05
1.00529e-05
1.00437e-05
1.00552e-05
1.00386e-05
1.01864e-05
2.22582e-05
0.000956124
0.0384354
0.437425
1.53652
2.79374
3.93528
5.02222
6.52062
5.81215
5.82078
6.51443
5.02184
3.94446
2.81796
1.57519
0.465387
0.0436303
0.00115639
2.5126e-05
1.01979e-05
1.00395e-05
1.00428e-05
1.00402e-05
1.0035e-05
1.0036e-05
1.00357e-05
1.00389e-05
1.00293e-05
1.00274e-05
1.00347e-05
1.00234e-05
1.00036e-05
1.0017e-05
1.00702e-05
1.00193e-05
1.00394e-05
1.00363e-05
1.00398e-05
1.004e-05
1.00478e-05
1.00451e-05
1.00474e-05
1.00463e-05
1.00494e-05
1.00528e-05
1.00451e-05
1.00569e-05
1.00408e-05
1.02149e-05
2.60896e-05
0.00124596
0.0456176
0.473488
1.58623
2.82668
3.95113
5.02691
6.51583
5.8063
5.82045
6.50781
5.02385
3.95651
2.84672
1.62091
0.501425
0.0514691
0.00148095
2.99242e-05
1.02514e-05
1.00405e-05
1.00427e-05
1.00412e-05
1.00349e-05
1.00371e-05
1.00369e-05
1.00388e-05
1.00303e-05
1.00274e-05
1.00359e-05
1.00245e-05
1.00036e-05
1.00173e-05
1.00712e-05
1.00193e-05
1.00392e-05
1.00374e-05
1.00397e-05
1.00411e-05
1.00476e-05
1.00456e-05
1.00472e-05
1.00474e-05
1.00492e-05
1.00525e-05
1.00451e-05
1.00565e-05
1.00413e-05
1.02706e-05
2.96642e-05
0.00143555
0.0516256
0.508176
1.63322
2.85788
3.96608
5.03173
6.51195
5.80032
5.81788
6.50492
5.02735
3.9692
2.87351
1.66112
0.5311
0.0570464
0.00168253
3.29938e-05
1.02869e-05
1.00431e-05
1.00438e-05
1.00409e-05
1.00359e-05
1.00369e-05
1.00367e-05
1.00384e-05
1.00301e-05
1.00285e-05
1.00365e-05
1.0024e-05
1.00036e-05
1.00176e-05
1.00718e-05
1.00193e-05
1.00402e-05
1.00373e-05
1.00407e-05
1.0041e-05
1.00486e-05
1.00473e-05
1.00483e-05
1.00473e-05
1.00502e-05
1.00536e-05
1.00464e-05
1.00574e-05
1.00432e-05
1.03107e-05
3.444e-05
0.00183016
0.0598315
0.544059
1.67795
2.88717
3.97985
5.036
6.50774
5.794
5.81823
6.49865
5.02856
3.97839
2.89767
1.70088
0.565371
0.0654302
0.00210274
3.95966e-05
1.03613e-05
1.00435e-05
1.00436e-05
1.00419e-05
1.00359e-05
1.00379e-05
1.00378e-05
1.00393e-05
1.0031e-05
1.00285e-05
1.00376e-05
1.00243e-05
1.00037e-05
1.0018e-05
1.00727e-05
1.00199e-05
1.004e-05
1.00383e-05
1.00406e-05
1.0042e-05
1.00484e-05
1.00472e-05
1.00481e-05
1.00472e-05
1.005e-05
1.00534e-05
1.00464e-05
1.00571e-05
1.00444e-05
1.03954e-05
4.04435e-05
0.00208208
0.0669525
0.578408
1.72026
2.91506
3.99313
5.0405
6.50441
5.78739
5.81806
6.49591
5.0311
3.98904
2.92064
1.73583
0.593286
0.0718205
0.00235562
4.36877e-05
1.04102e-05
1.00455e-05
1.00446e-05
1.00416e-05
1.00369e-05
1.00378e-05
1.00377e-05
1.0039e-05
1.00308e-05
1.00296e-05
1.00382e-05
1.00251e-05
1.00037e-05
1.00183e-05
1.00732e-05
1.00212e-05
1.00409e-05
1.00382e-05
1.00416e-05
1.00419e-05
1.00493e-05
1.00471e-05
1.00491e-05
1.00471e-05
1.0051e-05
1.00544e-05
1.00475e-05
1.0058e-05
1.00452e-05
1.04525e-05
4.63789e-05
0.00260258
0.0761663
0.613991
1.76097
2.94156
4.00558
5.04461
6.5008
5.78023
5.81989
6.48993
5.03147
3.99558
2.9407
1.77008
0.62516
0.080524
0.00286257
5.20777e-05
1.05028e-05
1.00461e-05
1.00444e-05
1.00421e-05
1.00368e-05
1.00387e-05
1.00376e-05
1.00398e-05
1.00317e-05
1.00296e-05
1.00392e-05
1.00247e-05
1.00037e-05
1.00188e-05
1.00739e-05
1.00219e-05
1.00409e-05
1.00391e-05
1.00414e-05
1.00428e-05
1.00491e-05
1.00481e-05
1.0049e-05
1.00481e-05
1.00508e-05
1.00543e-05
1.00475e-05
1.00578e-05
1.00477e-05
1.05728e-05
5.532e-05
0.00292836
0.0843913
0.647937
1.79949
2.96695
4.0178
5.04902
6.49794
5.77257
5.82147
6.48723
5.03252
4.00453
2.96021
1.80029
0.650787
0.087484
0.00319226
5.78846e-05
1.05781e-05
1.00481e-05
1.00454e-05
1.00428e-05
1.00367e-05
1.00386e-05
1.00381e-05
1.00395e-05
1.00315e-05
1.00303e-05
1.00397e-05
1.00251e-05
1.00038e-05
1.00191e-05
1.00743e-05
1.00236e-05
1.00406e-05
1.0039e-05
1.00423e-05
1.00427e-05
1.005e-05
1.0048e-05
1.00499e-05
1.0048e-05
1.00517e-05
1.00541e-05
1.00475e-05
1.00574e-05
1.00487e-05
1.06542e-05
6.27524e-05
0.00359815
0.0946125
0.683238
1.83697
2.99149
4.02952
5.05322
6.49499
5.76415
5.8253
6.48182
5.03213
4.00881
2.97651
1.82939
0.679653
0.0962284
0.00376061
6.76487e-05
1.06868e-05
1.00494e-05
1.00452e-05
1.00437e-05
1.00372e-05
1.00394e-05
1.00391e-05
1.00399e-05
1.00323e-05
1.0031e-05
1.00406e-05
1.00246e-05
1.00038e-05
1.00198e-05
1.00749e-05
1.00237e-05
1.0041e-05
1.0039e-05
1.00422e-05
1.00436e-05
1.00499e-05
1.00489e-05
1.00498e-05
1.00489e-05
1.00516e-05
1.0055e-05
1.00486e-05
1.0058e-05
1.00509e-05
1.08426e-05
7.54425e-05
0.00401132
0.103977
0.717039
1.87244
3.01519
4.04123
5.05784
6.49262
5.75496
5.82901
6.47826
5.03187
4.01574
2.99281
1.85509
0.702705
0.103471
0.004177
7.58953e-05
1.07883e-05
1.00503e-05
1.00461e-05
1.00444e-05
1.00382e-05
1.00394e-05
1.00397e-05
1.00409e-05
1.00322e-05
1.00327e-05
1.00411e-05
1.00247e-05
1.00039e-05
1.00202e-05
1.00752e-05
1.00238e-05
1.0042e-05
1.00388e-05
1.00428e-05
1.00435e-05
1.00503e-05
1.00488e-05
1.00502e-05
1.00488e-05
1.0052e-05
1.00549e-05
1.00485e-05
1.00578e-05
1.00528e-05
1.09498e-05
8.47975e-05
0.00485789
0.115253
0.752372
1.90722
3.03845
4.05271
5.06237
6.49037
5.74478
5.83526
6.47371
5.03087
4.01837
3.00568
1.87883
0.728263
0.111943
0.00478786
8.68106e-05
1.0917e-05
1.0053e-05
1.0046e-05
1.00453e-05
1.00389e-05
1.00392e-05
1.00412e-05
1.00408e-05
1.0033e-05
1.00327e-05
1.00419e-05
1.00252e-05
1.0004e-05
1.00211e-05
1.00756e-05
1.00239e-05
1.00425e-05
1.00388e-05
1.00433e-05
1.00444e-05
1.00513e-05
1.00497e-05
1.00512e-05
1.00497e-05
1.0053e-05
1.00557e-05
1.00492e-05
1.00587e-05
1.00572e-05
1.11797e-05
0.000102286
0.00537612
0.125861
0.78632
1.94045
3.0612
4.06443
5.06754
6.48858
5.73353
5.84155
6.46938
5.02924
4.02276
3.01876
1.90014
0.748596
0.119167
0.00527233
9.72612e-05
1.10414e-05
1.00539e-05
1.00459e-05
1.00459e-05
1.004e-05
1.00401e-05
1.00411e-05
1.00403e-05
1.0033e-05
1.00328e-05
1.00423e-05
1.00246e-05
1.0004e-05
1.00216e-05
1.00757e-05
1.0024e-05
1.00438e-05
1.00387e-05
1.00447e-05
1.00443e-05
1.00518e-05
1.00496e-05
1.00518e-05
1.00497e-05
1.00536e-05
1.00556e-05
1.00498e-05
1.00586e-05
1.00588e-05
1.13212e-05
0.000114242
0.00642101
0.138319
0.821868
1.97343
3.08383
4.07612
5.07263
6.48707
5.72102
5.84915
6.46523
5.02746
4.02425
3.02842
1.91875
0.770177
0.127031
0.00590865
0.000109261
1.11907e-05
1.00568e-05
1.00457e-05
1.00467e-05
1.00406e-05
1.004e-05
1.0041e-05
1.00409e-05
1.00328e-05
1.00329e-05
1.00431e-05
1.00247e-05
1.00042e-05
1.00232e-05
1.00759e-05
1.00241e-05
1.00437e-05
1.00392e-05
1.00446e-05
1.00451e-05
1.00529e-05
1.00504e-05
1.00529e-05
1.00496e-05
1.00547e-05
1.00565e-05
1.00513e-05
1.00594e-05
1.00622e-05
1.1622e-05
0.000137698
0.0070961
0.150332
0.856209
2.00528
3.10626
4.08829
5.07867
6.4859
5.70712
5.85783
6.46042
5.0238
4.0258
3.03808
1.93579
0.787433
0.133898
0.00643413
0.00012148
1.13328e-05
1.00579e-05
1.00466e-05
1.00474e-05
1.00416e-05
1.00408e-05
1.00408e-05
1.00406e-05
1.00335e-05
1.0033e-05
1.00435e-05
1.00244e-05