/*--------------------------------*- C++ -*----------------------------------*\
| =========                 |                                                 |
| \\      /  F ield         | OpenFOAM: The Open Source CFD Toolbox           |
|  \\    /   O peration     | Version:  2.1.0                                 |
|   \\  /    A nd           | Web:      www.OpenFOAM.org                      |
|    \\/     M anipulation  |                                                 |
\*---------------------------------------------------------------------------*/
FoamFile
{
    version     2.0;
    format      ascii;
    class       surfaceScalarField;
    location    "10000";
    object      phi;
}
// * * * * * * * * * * * * * * * * * * * * * * * * * * * * * * * * * * * * * //

dimensions      [1 0 -1 0 0 0 0];

internalField   nonuniform List<scalar> 
29650
(
1.86263e-05
0.000147909
1.72704e-05
0.000173444
1.38902e-05
0.000181206
1.05168e-05
0.000187127
7.32176e-06
0.000193074
4.33908e-06
0.000199191
1.58711e-06
0.000205501
-9.14477e-07
0.00021201
-3.16642e-06
0.000218744
-5.16516e-06
0.000225708
-6.90358e-06
0.000232905
-8.37706e-06
0.000240346
-9.58924e-06
0.000248048
-1.05397e-05
0.000256015
-1.11942e-05
0.000264222
-1.15285e-05
0.000272688
-1.15502e-05
0.000281455
-1.12686e-05
0.000290534
-1.06604e-05
0.000299902
-9.71282e-06
0.00030958
-8.43783e-06
0.000319605
-6.82234e-06
0.000329962
-4.82947e-06
0.000340638
-2.48681e-06
0.000351711
1.89896e-07
0.00036318
2.86225e-06
0.000363185
5.15932e-06
0.000351757
7.10711e-06
0.000340683
8.70612e-06
0.000329978
9.95894e-06
0.000319627
1.08678e-05
0.000309619
1.14487e-05
0.000299929
1.17058e-05
0.000290558
1.16518e-05
0.000281487
1.12905e-05
0.000272715
1.06328e-05
0.000264225
9.68499e-06
0.000256012
8.45515e-06
0.000248066
6.95028e-06
0.000240378
5.17868e-06
0.000232938
3.15232e-06
0.000225735
8.81413e-07
0.000218763
-1.62942e-06
0.000212019
-4.37832e-06
0.000205498
-7.35288e-06
0.000199183
-1.05383e-05
0.000193064
-1.39054e-05
0.00018712
-1.72798e-05
0.0001812
-1.86275e-05
0.000173436
0.000147908
8.63313e-06
0.000139276
8.46507e-06
0.000173612
5.91012e-06
0.000183761
3.2098e-06
0.000189827
7.23581e-07
0.00019556
-1.58314e-06
0.000201498
-3.69367e-06
0.000207612
-5.61945e-06
0.000213935
-7.34478e-06
0.000220469
-8.85881e-06
0.000227222
-1.01542e-05
0.000234201
-1.12211e-05
0.000241413
-1.20403e-05
0.000248867
-1.25935e-05
0.000256568
-1.2898e-05
0.000264527
-1.29637e-05
0.000272754
-1.27672e-05
0.000281258
-1.22796e-05
0.000290046
-1.15057e-05
0.000299128
-1.04425e-05
0.000308517
-9.0583e-06
0.000318221
-7.34611e-06
0.00032825
-5.32701e-06
0.000338619
-2.95396e-06
0.000349338
-1.90665e-07
0.000360417
2.57711e-06
0.000360417
4.99746e-06
0.000349336
7.06226e-06
0.000338619
8.79058e-06
0.00032825
1.01985e-05
0.000318219
1.13021e-05
0.000308516
1.21032e-05
0.000299128
1.26163e-05
0.000290045
1.28461e-05
0.000281257
1.28068e-05
0.000272754
1.25041e-05
0.000264528
1.19492e-05
0.000256567
1.11501e-05
0.000248865
1.01159e-05
0.000241412
8.8538e-06
0.0002342
7.36696e-06
0.000227222
5.66003e-06
0.00022047
3.74277e-06
0.000213936
1.62833e-06
0.000207613
-6.86536e-07
0.000201498
-3.18296e-06
0.000195561
-5.88913e-06
0.000189826
-8.44862e-06
0.000183759
-8.62352e-06
0.000173611
0.000139284
6.58756e-06
0.000132688
7.46469e-06
0.000172735
5.35124e-06
0.000185874
2.759e-06
0.000192419
3.05685e-07
0.000198013
-1.96834e-06
0.000203772
-4.04727e-06
0.000209691
-5.92874e-06
0.000215817
-7.60339e-06
0.000222144
-9.06585e-06
0.000228684
-1.03085e-05
0.000235443
-1.13231e-05
0.000242428
-1.21017e-05
0.000249646
-1.26392e-05
0.000257106
-1.29279e-05
0.000264815
-1.29574e-05
0.000272783
-1.27171e-05
0.000281018
-1.22e-05
0.000289529
-1.13975e-05
0.000298326
-1.02983e-05
0.000307418
-8.89294e-06
0.000316816
-7.17336e-06
0.00032653
-5.12576e-06
0.000336572
-2.74044e-06
0.000346953
-7.93011e-09
0.000357685
2.72477e-06
0.000357684
5.10897e-06
0.000346952
7.15646e-06
0.000336571
8.87726e-06
0.000326529
1.02819e-05
0.000316815
1.13808e-05
0.000307417
1.21843e-05
0.000298324
1.27015e-05
0.000289528
1.29419e-05
0.000281017
1.29142e-05
0.000272782
1.26275e-05
0.000264814
1.20899e-05
0.000257105
1.13097e-05
0.000249645
1.02948e-05
0.000242427
9.05296e-06
0.000235442
7.59177e-06
0.000228683
5.91831e-06
0.000222143
4.03825e-06
0.000215816
1.96039e-06
0.00020969
-3.12935e-07
0.000203771
-2.76615e-06
0.000198014
-5.35819e-06
0.000192419
-7.46882e-06
0.00018587
-6.58996e-06
0.000172732
0.000132694
4.80845e-06
0.00012788
6.24191e-06
0.000171301
4.67618e-06
0.00018744
2.2231e-06
0.000194872
-1.45926e-07
0.000200382
-2.33582e-06
0.000205962
-4.33479e-06
0.00021169
-6.14258e-06
0.000217625
-7.75106e-06
0.000223753
-9.15305e-06
0.000230086
-1.03402e-05
0.00023663
-1.13041e-05
0.000243392
-1.20403e-05
0.000250382
-1.25391e-05
0.000257604
-1.27919e-05
0.000265068
-1.27931e-05
0.000272784
-1.25357e-05
0.000280761
-1.20092e-05
0.000289002
-1.12037e-05
0.00029752
-1.01131e-05
0.000306327
-8.72576e-06
0.000315428
-7.03056e-06
0.000324835
-5.02035e-06
0.000334562
-2.6832e-06
0.000344616
-6.47574e-09
0.000355008
2.6703e-06
0.000355008
5.0091e-06
0.000344613
7.02014e-06
0.00033456
8.71486e-06
0.000324835
1.01034e-05
0.000315426
1.11957e-05
0.000306324
1.20006e-05
0.00029752
1.25279e-05
0.000289001
1.2786e-05
0.000280759
1.2784e-05
0.000272784
1.25298e-05
0.000265069
1.20317e-05
0.000257603
1.12974e-05
0.000250379
1.03343e-05
0.00024339
9.14972e-06
0.000236627
7.75022e-06
0.000230083
6.14361e-06
0.00022375
4.33551e-06
0.000217624
2.33585e-06
0.00021169
1.45883e-07
0.000205961
-2.22283e-06
0.000200382
-4.67519e-06
0.000194871
-6.24219e-06
0.000187437
-4.8089e-06
0.000171298
0.000127885
3.22458e-06
0.000124655
4.8795e-06
0.000169647
3.92591e-06
0.000188393
1.64196e-06
0.000197156
-6.44717e-07
0.000202669
-2.75854e-06
0.000208076
-4.68817e-06
0.000213619
-6.42889e-06
0.000219365
-7.96966e-06
0.000225293
-9.3078e-06
0.000231424
-1.04365e-05
0.000237759
-1.13514e-05
0.000244307
-1.20419e-05
0.000251073
-1.2503e-05
0.000258066
-1.27288e-05
0.000265294
-1.27082e-05
0.000272764
-1.24318e-05
0.000280484
-1.1893e-05
0.000288464
-1.10841e-05
0.000296711
-9.99392e-06
0.000305237
-8.61395e-06
0.000314048
-6.93635e-06
0.000323157
-4.94813e-06
0.000332573
-2.63992e-06
0.000342307
-2.8919e-09
0.000352371
2.63424e-06
0.00035237
4.94091e-06
0.000342307
6.92875e-06
0.000332572
8.60724e-06
0.000323156
9.98645e-06
0.000314047
1.10761e-05
0.000305235
1.1886e-05
0.00029671
1.24247e-05
0.000288462
1.27012e-05
0.000280482
1.27236e-05
0.000272762
1.25003e-05
0.000265292
1.20389e-05
0.000258064
1.13472e-05
0.000251071
1.04324e-05
0.000244305
9.30193e-06
0.000237757
7.96221e-06
0.000231423
6.42037e-06
0.000225292
4.68091e-06
0.000219364
2.75272e-06
0.000213618
6.39693e-07
0.000208074
-1.64646e-06
0.000202669
-3.92987e-06
0.000197154
-4.8821e-06
0.000188389
-3.227e-06
0.000169643
0.000124658
1.92714e-06
0.000122728
3.48374e-06
0.00016809
3.09202e-06
0.000188785
1.03367e-06
0.000199215
-1.16047e-06
0.000204863
-3.18947e-06
0.000210105
-5.04001e-06
0.00021547
-6.70645e-06
0.000221032
-8.18143e-06
0.000226768
-9.46046e-06
0.000232704
-1.0535e-05
0.000238834
-1.14001e-05
0.000245172
-1.20489e-05
0.000251721
-1.24722e-05
0.000258489
-1.26617e-05
0.000265483
-1.26119e-05
0.000272714
-1.23164e-05
0.000280189
-1.17653e-05
0.000287912
-1.09491e-05
0.000295895
-9.86159e-06
0.00030415
-8.49228e-06
0.000312679
-6.83027e-06
0.000321495
-4.86854e-06
0.000330612
-2.596e-06
0.000340035
-6.54989e-10
0.000349776
2.59473e-06
0.000349775
4.86879e-06
0.000340033
6.83109e-06
0.00033061
8.49261e-06
0.000321495
9.863e-06
0.000312677
1.09517e-05
0.000304146
1.17672e-05
0.000295894
1.23189e-05
0.00028791
1.26148e-05
0.000280186
1.26634e-05
0.000272713
1.24725e-05
0.000265483
1.20498e-05
0.000258487
1.14027e-05
0.000251718
1.05381e-05
0.000245169
9.46333e-06
0.000238832
8.18367e-06
0.000232702
6.70779e-06
0.000226768
5.04036e-06
0.000221031
3.18899e-06
0.00021547
1.1597e-06
0.000210104
-1.03419e-06
0.000204863
-3.092e-06
0.000199212
-3.48436e-06
0.000188782
-1.92901e-06
0.000168088
0.000122729
9.31323e-07
0.000121797
2.23131e-06
0.00016679
2.30776e-06
0.000188709
5.22613e-07
0.000201
-1.57918e-06
0.000206965
-3.53137e-06
0.000212057
-5.31217e-06
0.000217251
-6.91218e-06
0.000222632
-8.32572e-06
0.000228182
-9.54843e-06
0.000233926
-1.0572e-05
0.000239857
-1.13905e-05
0.00024599
-1.19961e-05
0.000252327
-1.23839e-05
0.000258877
-1.25492e-05
0.000265649
-1.24811e-05
0.000272646
-1.21705e-05
0.000279878
-1.16111e-05
0.000287353
-1.07958e-05
0.00029508
-9.71404e-06
0.000303068
-8.35742e-06
0.000311322
-6.71886e-06
0.000319857
-4.78588e-06
0.000328679
-2.54957e-06
0.000337799
-1.54259e-09
0.000347228
2.54655e-06
0.000347227
4.78125e-06
0.000337798
6.71369e-06
0.000328678
8.35282e-06
0.000319855
9.70827e-06
0.000311321
1.07892e-05
0.000303065
1.16051e-05
0.000295078
1.21638e-05
0.000287351
1.24741e-05
0.000279876
1.25435e-05
0.000272644
1.23801e-05
0.000265646
1.19911e-05
0.000258876
1.13838e-05
0.000252326
1.05649e-05
0.000245988
9.54168e-06
0.000239855
8.3196e-06
0.000233924
6.90704e-06
0.00022818
5.30801e-06
0.00022263
3.52815e-06
0.00021725
1.57622e-06
0.000212055
-5.2577e-07
0.000206965
-2.30936e-06
0.000200996
-2.23261e-06
0.000188705
-9.32774e-07
0.000166788
0.000121796
2.50704e-07
0.000121546
1.20977e-06
0.000165831
1.58926e-06
0.000188329
1.23628e-07
0.000202465
-1.88457e-06
0.000208973
-3.76455e-06
0.000213937
-5.47818e-06
0.000218964
-7.01591e-06
0.00022417
-8.37344e-06
0.000229539
-9.54465e-06
0.000235097
-1.05232e-05
0.000240836
-1.13031e-05
0.00024677
-1.18781e-05
0.000252902
-1.224e-05
0.000259239
-1.23803e-05
0.000265789
-1.22939e-05
0.000272559
-1.19749e-05
0.000279559
-1.1414e-05
0.000286792
-1.0602e-05
0.000294268
-9.5331e-06
0.000301999
-8.19738e-06
0.000309987
-6.5844e-06
0.000318244
-4.68759e-06
0.000326782
-2.49642e-06
0.000335607
4.99605e-10
0.000344731
2.49743e-06
0.00034473
4.69003e-06
0.000335605
6.58734e-06
0.00032678
8.19982e-06
0.000318243
9.53657e-06
0.000309984
1.06065e-05
0.000301995
1.14179e-05
0.000294267
1.19793e-05
0.00028679
1.22986e-05
0.000279557
1.23838e-05
0.000272558
1.22422e-05
0.000265788
1.18811e-05
0.000259237
1.13077e-05
0.000252899
1.05283e-05
0.000246767
9.54953e-06
0.000240834
8.37772e-06
0.000235096
7.01932e-06
0.000229539
5.48068e-06
0.000224169
3.76625e-06
0.000218964
1.88603e-06
0.000213936
-1.21435e-07
0.000208972
-1.58831e-06
0.000202463
-1.20995e-06
0.000188327
-2.51636e-07
0.00016583
0.000121545
-1.91202e-07
0.000121737
4.2342e-07
0.000165216
9.20125e-07
0.000187832
-1.95909e-07
0.000203581
-2.09825e-06
0.000210875
-3.91296e-06
0.000215752
-5.5678e-06
0.000220619
-7.05051e-06
0.000225652
-8.35779e-06
0.000230847
-9.48349e-06
0.000236223
-1.0422e-05
0.000241774
-1.11661e-05
0.000247514
-1.17089e-05
0.000253445
-1.20453e-05
0.000259575
-1.21715e-05
0.000265915
-1.20769e-05
0.000272465
-1.1753e-05
0.000279235
-1.11936e-05
0.000286233
-1.03923e-05
0.000293466
-9.33893e-06
0.000300946
-8.02536e-06
0.000308673
-6.44538e-06
0.000316664
-4.58676e-06
0.000324923
-2.44122e-06
0.000333462
-8.29552e-10
0.00034229
2.43966e-06
0.00034229
4.58368e-06
0.000333461
6.44181e-06
0.000324922
8.02247e-06
0.000316662
9.33481e-06
0.000308672
1.03875e-05
0.000300942
1.11894e-05
0.000293465
1.17481e-05
0.000286231
1.20718e-05
0.000279233
1.21676e-05
0.000272463
1.20432e-05
0.000265912
1.17053e-05
0.000259575
1.11611e-05
0.000253443
1.04163e-05
0.000247512
9.47828e-06
0.000241772
8.35337e-06
0.000236221
7.04703e-06
0.000230845
5.56525e-06
0.000225651
3.91134e-06
0.000220618
2.09686e-06
0.00021575
1.93847e-07
0.000210875
-9.21547e-07
0.000203578
-4.24487e-07
0.000187829
1.90677e-07
0.000165215
0.000121735
-4.70836e-07
0.000122208
-1.73463e-07
0.000164919
2.98797e-07
0.00018736
-4.63741e-07
0.000204344
-2.2475e-06
0.000212659
-3.99812e-06
0.000217502
-5.59431e-06
0.000222215
-7.02367e-06
0.000227082
-8.28351e-06
0.000232107
-9.36656e-06
0.000237306
-1.02676e-05
0.000242675
-1.09816e-05
0.000248228
-1.15016e-05
0.000253965
-1.18206e-05
0.000259894
-1.19301e-05
0.000266025
-1.18252e-05
0.00027236
-1.15005e-05
0.000278911
-1.09472e-05
0.00028568
-1.01567e-05
0.000292676
-9.12347e-06
0.000299912
-7.83815e-06
0.000307388
-6.29081e-06
0.000315116
-4.47533e-06
0.000323108
-2.38172e-06
0.000331368
7.17477e-10
0.000339908
2.38314e-06
0.000339907
4.47807e-06
0.000331366
6.29401e-06
0.000323106
7.84085e-06
0.000315115
9.12716e-06
0.000307386
1.01614e-05
0.000299908
1.09512e-05
0.000292675
1.1505e-05
0.000285678
1.18299e-05
0.000278908
1.19336e-05
0.000272359
1.18231e-05
0.000266023
1.15051e-05
0.000259893
1.09864e-05
0.000253962
1.02727e-05
0.000248226
9.37152e-06
0.000242673
8.2878e-06
0.000237305
7.02715e-06
0.000232106
5.59694e-06
0.000227081
3.99994e-06
0.000222215
2.24919e-06
0.000217501
4.66553e-07
0.000212658
-2.96639e-07
0.000204341
1.74256e-07
0.000187359
4.70793e-07
0.000164918
0.000122206
-6.47606e-07
0.000122856
-6.15415e-07
0.000164887
-2.71924e-07
0.000187017
-7.22641e-07
0.000204795
-2.35766e-06
0.000214294
-4.04822e-06
0.000219193
-5.59205e-06
0.000223759
-6.97308e-06
0.000228463
-8.18901e-06
0.000233322
-9.23295e-06
0.00023835
-1.01e-05
0.000243542
-1.07846e-05
0.000248913
-1.12784e-05
0.000254459
-1.15772e-05
0.000260193
-1.16776e-05
0.000266125
-1.15697e-05
0.000272252
-1.12452e-05
0.000278586
-1.06983e-05
0.000285133
-9.92317e-06
0.000291901
-8.91002e-06
0.000298899
-7.65107e-06
0.000306129
-6.14085e-06
0.000313606
-4.36749e-06
0.000321334
-2.3233e-06
0.000329324
-7.84953e-10
0.000337585
2.32184e-06
0.000337584
4.36462e-06
0.000329324
6.13751e-06
0.000321333
7.64844e-06
0.000313604
8.90609e-06
0.000306128
9.91857e-06
0.000298896
1.06943e-05
0.0002919
1.12404e-05
0.000285131
1.15646e-05
0.000278584
1.16736e-05
0.00027225
1.15748e-05
0.000266122
1.12744e-05
0.000260194
1.07787e-05
0.000254457
1.00942e-05
0.000248911
9.22726e-06
0.00024354
8.18398e-06
0.000238348
6.9688e-06
0.000233321
5.58854e-06
0.000228461
4.04548e-06
0.000223758
2.35496e-06
0.000219191
7.19783e-07
0.000214293
2.69798e-07
0.000204791
6.14173e-07
0.000187014
6.47331e-07
0.000164885
0.000122854
-7.61813e-07
0.000123617
-9.47924e-07
0.000165073
-7.61924e-07
0.000186831
-9.69333e-07
0.000205002
-2.42743e-06
0.000215752
-4.05663e-06
0.000220822
-5.54745e-06
0.00022525
-6.88125e-06
0.000229796
-8.05528e-06
0.000234496
-9.06209e-06
0.000239357
-9.89753e-06
0.000244378
-1.05558e-05
0.000249571
-1.10317e-05
0.000254935
-1.13178e-05
0.000260479
-1.14063e-05
0.000266214
-1.12923e-05
0.000272138
-1.09708e-05
0.000278265
-1.04339e-05
0.000284596
-9.67302e-06
0.00029114
-8.68305e-06
0.000297909
-7.45536e-06
0.000304901
-5.98042e-06
0.000312131
-4.25252e-06
0.000319606
-2.26225e-06
0.000327334
4.53232e-10
0.000335323
2.26312e-06
0.000335322
4.25463e-06
0.000327332
5.98295e-06
0.000319605
7.45744e-06
0.00031213
8.68613e-06
0.000304899
9.67702e-06
0.000297905
1.04373e-05
0.000291139
1.09749e-05
0.000284594
1.12965e-05
0.000278262
1.14095e-05
0.000272137
1.13203e-05
0.000266211
1.10353e-05
0.000260478
1.05606e-05
0.000254932
9.90266e-06
0.000249568
9.06728e-06
0.000244376
8.05994e-06
0.000239356
6.88531e-06
0.000234495
5.55084e-06
0.000229796
4.05943e-06
0.000225249
2.43031e-06
0.000220821
9.72288e-07
0.000215751
7.6408e-07
0.000204999
9.48988e-07
0.000186829
7.62058e-07
0.000165072
0.000123616
-8.3855e-07
0.000124456
-1.21952e-06
0.000165454
-1.19281e-06
0.000186804
-1.23071e-06
0.00020504
-2.51642e-06
0.000217038
-4.08117e-06
0.000222387
-5.52175e-06
0.000226691
-6.8096e-06
0.000231084
-7.94178e-06
0.000235629
-8.91174e-06
0.000240327
-9.71519e-06
0.000245181
-1.03461e-05
0.000250202
-1.07981e-05
0.000255387
-1.10657e-05
0.000260747
-1.11465e-05
0.000266294
-1.10308e-05
0.000272022
-1.07111e-05
0.000277945
-1.01816e-05
0.000284066
-9.43704e-06
0.000290395
-8.46813e-06
0.00029694
-7.26735e-06
0.0003037
-5.82988e-06
0.000310694
-4.14429e-06
0.000317921
-2.20337e-06
0.000325393
-4.5829e-11
0.000333119
2.2034e-06
0.000333118
4.14298e-06
0.000325392
5.82814e-06
0.00031792
7.2663e-06
0.000310692
8.4657e-06
0.0003037
9.43395e-06
0.000296937
1.0179e-05
0.000290394
1.07076e-05
0.000284065
1.1027e-05
0.000277943
1.11435e-05
0.00027202
1.10641e-05
0.00026629
1.07947e-05
0.000260748
1.0341e-05
0.000255386
9.70991e-06
0.0002502
8.9063e-06
0.000245179
7.93679e-06
0.000240325
6.80509e-06
0.000235627
5.51771e-06
0.000231083
4.07761e-06
0.000226689
2.51255e-06
0.000222386
1.22915e-06
0.000217034
1.19155e-06
0.000205037
1.21888e-06
0.000186802
8.38728e-07
0.000165452
0.000124454
-8.98332e-07
0.000125354
-1.4298e-06
0.000165985
-1.55278e-06
0.000186927
-1.49903e-06
0.000204986
-2.57239e-06
0.000218111
-4.07092e-06
0.000223885
-5.46155e-06
0.000228081
-6.70527e-06
0.000232328
-7.79828e-06
0.000236722
-8.73378e-06
0.000241262
-9.50795e-06
0.000245955
-1.01149e-05
0.000250809
-1.05505e-05
0.000255822
-1.08071e-05
0.000261003
-1.08777e-05
0.000266365
-1.07573e-05
0.000271902
-1.04415e-05
0.000277629
-9.92272e-06
0.000283547
-9.19297e-06
0.000289666
-8.24724e-06
0.000295995
-7.07762e-06
0.000302531
-5.67492e-06
0.000309291
-4.03388e-06
0.00031628
-2.14559e-06
0.000323505
-5.70444e-10
0.000330974
2.14439e-06
0.000330973
4.03386e-06
0.000323503
5.67529e-06
0.000316278
7.07757e-06
0.00030929
8.24823e-06
0.000302529
9.19482e-06
0.00029599
9.92412e-06
0.000289665
1.04436e-05
0.000283546
1.07597e-05
0.000277627
1.08791e-05
0.000271901
1.0808e-05
0.000266361
1.05525e-05
0.000261003
1.01184e-05
0.00025582
9.51185e-06
0.000250806
8.73789e-06
0.000245953
7.80204e-06
0.000241261
6.70866e-06
0.000236721
5.46453e-06
0.000232327
4.07355e-06
0.00022808
2.57556e-06
0.000223884
1.5005e-06
0.000218109
1.55368e-06
0.000204984
1.43003e-06
0.000186926
8.98107e-07
0.000165984
0.000125353
-9.36084e-07
0.00012629
-1.56181e-06
0.000166611
-1.81882e-06
0.000187184
-1.75887e-06
0.000204926
-2.60735e-06
0.00021896
-4.0341e-06
0.000225312
-5.37986e-06
0.000229427
-6.58308e-06
0.000233531
-7.63941e-06
0.000237778
-8.54301e-06
0.000242166
-9.28985e-06
0.000246702
-9.87387e-06
0.000251393
-1.02896e-05
0.000256238
-1.05317e-05
0.000261245
-1.05978e-05
0.000266431
-1.04788e-05
0.000271783
-1.01677e-05
0.000277318
-9.65876e-06
0.000283038
-8.94749e-06
0.000288954
-8.02485e-06
0.000295072
-6.88368e-06
0.00030139
-5.51973e-06
0.000307927
-3.922e-06
0.000314682
-2.08377e-06
0.000321666
1.61552e-09
0.000328889
2.08716e-06
0.000328888
3.92413e-06
0.000321666
5.52148e-06
0.000314681
6.88614e-06
0.000307925
8.02595e-06
0.00030139
8.948e-06
0.000295068
9.65988e-06
0.000288953
1.01677e-05
0.000283038
1.04787e-05
0.000277316
1.05985e-05
0.000271781
1.05335e-05
0.000266426
1.02894e-05
0.000261247
9.87254e-06
0.000256237
9.28819e-06
0.00025139
8.54122e-06
0.0002467
7.63805e-06
0.000242164
6.58214e-06
0.000237776
5.37936e-06
0.00023353
4.03402e-06
0.000229426
2.6066e-06
0.000225311
1.7574e-06
0.000218959
1.81761e-06
0.000204924
1.56147e-06
0.000187182
9.36399e-07
0.000166609
0.000126289
-9.57671e-07
0.000127248
-1.65561e-06
0.000167309
-2.01267e-06
0.000187541
-1.9973e-06
0.000204911
-2.64419e-06
0.000219607
-3.99161e-06
0.000226659
-5.2909e-06
0.000230726
-6.45388e-06
0.000234694
-7.47464e-06
0.000238799
-8.34724e-06
0.000243039
-9.06795e-06
0.000247423
-9.6311e-06
0.000251956
-1.0033e-05
0.00025664
-1.02665e-05
0.000261479
-1.03248e-05
0.000266489
-1.02033e-05
0.000271662
-9.89777e-06
0.000277012
-9.40119e-06
0.000282542
-8.70599e-06
0.000288259
-7.80732e-06
0.000294173
-6.69797e-06
0.00030028
-5.36908e-06
0.000306598
-3.81579e-06
0.000313129
-2.02974e-06
0.00031988
-1.95935e-09
0.000326861
2.02573e-06
0.00032686
3.8129e-06
0.000319879
5.36652e-06
0.000313127
6.69501e-06
0.000306596
7.8054e-06
0.000300279
8.70482e-06
0.000294169
9.39966e-06
0.000288258
9.89696e-06
0.000282541
1.02027e-05
0.00027701
1.03234e-05
0.00027166
1.02645e-05
0.000266485
1.0032e-05
0.00026148
9.63171e-06
0.000256637
9.06898e-06
0.000251953
8.3485e-06
0.000247421
7.47557e-06
0.000243037
6.45452e-06
0.000238798
5.29118e-06
0.000234693
3.9916e-06
0.000230725
2.64499e-06
0.000226658
1.99919e-06
0.000219604
2.01389e-06
0.000204909
1.65588e-06
0.00018754
9.57418e-07
0.000167308
0.000127246
-9.6822e-07
0.000128216
-1.71293e-06
0.000168054
-2.134e-06
0.000187962
-2.188e-06
0.000204965
-2.6755e-06
0.000220094
-3.93183e-06
0.000227916
-5.18876e-06
0.000231983
-6.31423e-06
0.00023582
-7.30116e-06
0.000239786
-8.14461e-06
0.000243882
-8.84043e-06
0.000248119
-9.38301e-06
0.000252499
-9.76717e-06
0.000257024
-9.98812e-06
0.0002617
-1.00434e-05
0.000266545
-9.92423e-06
0.000271542
-9.62439e-06
0.000276713
-9.13832e-06
0.000282056
-8.46192e-06
0.000287583
-7.58657e-06
0.000293298
-6.50551e-06
0.000299199
-5.21479e-06
0.000305308
-3.70405e-06
0.000311618
-1.96696e-06
0.000318143
2.7528e-09
0.000324891
1.97264e-06
0.00032489
3.70852e-06
0.000318143
5.21891e-06
0.000311617
6.51023e-06
0.000305305
7.58996e-06
0.000299199
8.46471e-06
0.000293294
9.14166e-06
0.000287581
9.62656e-06
0.000282056
9.92608e-06
0.000276711
1.00458e-05
0.000271541
9.99147e-06
0.00026654
9.76878e-06
0.000261703
9.38333e-06
0.000257023
8.8403e-06
0.000252496
8.14423e-06
0.000248117
7.30106e-06
0.00024388
6.31435e-06
0.000239784
5.18914e-06
0.000235818
3.93239e-06
0.000231982
2.67449e-06
0.000227916
2.18697e-06
0.000220092
2.13331e-06
0.000204963
1.71284e-06
0.00018796
9.68591e-07
0.000168052
0.000128215
-9.68031e-07
0.000129184
-1.73033e-06
0.000168816
-2.20475e-06
0.000188437
-2.34067e-06
0.000205101
-2.70832e-06
0.000220462
-3.86251e-06
0.00022907
-5.07585e-06
0.000233196
-6.16497e-06
0.000236909
-7.12016e-06
0.000240741
-7.93602e-06
0.000244698
-8.60886e-06
0.000248792
-9.1334e-06
0.000253023
-9.5062e-06
0.000257397
-9.72071e-06
0.000261914
-9.77035e-06
0.000266594
-9.6507e-06
0.000271423
-9.35783e-06
0.00027642
-8.88525e-06
0.000281583
-8.22582e-06
0.000286923
-7.37479e-06
0.000292447
-6.32562e-06
0.00029815
-5.06982e-06
0.000304052
-3.60285e-06
0.000310151
-1.91689e-06
0.000316457
-3.47049e-09
0.000322978
1.90984e-06
0.000322977
3.59688e-06
0.000316456
5.06416e-06
0.00031015
6.31966e-06
0.00030405
7.36991e-06
0.000298149
8.22168e-06
0.000292442
8.88094e-06
0.000286922
9.35436e-06
0.000281582
9.64754e-06
0.000276417
9.76661e-06
0.000271422
9.71654e-06
0.00026659
9.50333e-06
0.000261916
9.13213e-06
0.000257394
8.6081e-06
0.00025302
7.93565e-06
0.000248789
7.11966e-06
0.000244696
6.16441e-06
0.000240739
5.07518e-06
0.000236908
3.86179e-06
0.000233195
2.70919e-06
0.000229068
2.3414e-06
0.00022046
2.20512e-06
0.000205099
1.73034e-06
0.000188435
9.67646e-07
0.000168815
0.000129183
-9.55034e-07
0.000130139
-1.72533e-06
0.000169586
-2.24324e-06
0.000188954
-2.45187e-06
0.000205309
-2.73458e-06
0.000220745
-3.78945e-06
0.000230125
-4.96065e-06
0.000234368
-6.01496e-06
0.000237963
-6.93872e-06
0.000241665
-7.7277e-06
0.000245487
-8.37769e-06
0.000249442
-8.88362e-06
0.000253529
-9.24048e-06
0.000257754
-9.44377e-06
0.000262118
-9.49109e-06
0.000266642
-9.37449e-06
0.000271306
-9.08792e-06
0.000276133
-8.62606e-06
0.000281121
-7.98528e-06
0.000286283
-7.15733e-06
0.000291619
-6.13587e-06
0.000297129
-4.91719e-06
0.000302833
-3.49158e-06
0.000308725
-1.85306e-06
0.000314819
4.26297e-09
0.000321121
1.86177e-06
0.000321119
3.49913e-06
0.000314819
4.92439e-06
0.000308725
6.14353e-06
0.00030283
7.16365e-06
0.000297129
7.99094e-06
0.000291615
8.63215e-06
0.000286281
9.09268e-06
0.000281122
9.37873e-06
0.000276131
9.4958e-06
0.000271305
9.44898e-06
0.000266636
9.2439e-06
0.000262121
8.88561e-06
0.000257752
8.37909e-06
0.000253527
7.72861e-06
0.00024944
6.93969e-06
0.000245485
6.01586e-06
0.000241663
4.96151e-06
0.000237962
3.7902e-06
0.000234367
2.73488e-06
0.000230123
2.45228e-06
0.000220742
2.24366e-06
0.000205307
1.72582e-06
0.000188953
9.55602e-07
0.000169585
0.000130138
-9.37106e-07
0.000131076
-1.70815e-06
0.000170357
-2.25962e-06
0.000189506
-2.53318e-06
0.000205583
-2.76174e-06
0.000220973
-3.71724e-06
0.00023108
-4.84522e-06
0.000235496
-5.86559e-06
0.000238984
-6.75997e-06
0.000242559
-7.52347e-06
0.00024625
-8.15238e-06
0.000250071
-8.64179e-06
0.000254018
-8.98851e-06
0.0002581
-9.18654e-06
0.000262316
-9.22944e-06
0.000266684
-9.11312e-06
0.00027119
-8.83384e-06
0.000275854
-8.38561e-06
0.000280673
-7.76168e-06
0.000285659
-6.95743e-06
0.000290815
-5.96695e-06
0.000296138
-4.78205e-06
0.000301648
-3.39855e-06
0.000307342
-1.80912e-06
0.000313229
-5.74403e-09
0.000319317
1.7975e-06
0.000319316
3.38802e-06
0.000313228
4.77185e-06
0.000307341
5.95659e-06
0.000301646
6.94827e-06
0.000296137
7.75334e-06
0.00029081
8.37737e-06
0.000285657
8.82668e-06
0.000280673
9.10647e-06
0.000275852
9.22259e-06
0.000271188
9.17963e-06
0.000266679
8.98335e-06
0.000262317
8.63845e-06
0.000258097
8.14985e-06
0.000254015
7.52176e-06
0.000250068
6.75859e-06
0.000246248
5.8647e-06
0.000242557
4.84477e-06
0.000238982
3.71739e-06
0.000235494
2.7592e-06
0.000231082
2.53088e-06
0.000220971
2.25771e-06
0.000205581
1.70679e-06
0.000189504
9.36298e-07
0.000170355
0.000131074
-9.14319e-07
0.000131991
-1.6848e-06
0.000171128
-2.26507e-06
0.000190086
-2.59742e-06
0.000205915
-2.79354e-06
0.000221169
-3.64241e-06
0.000231929
-4.7272e-06
0.00023658
-5.71448e-06
0.000239971
-6.57918e-06
0.000243424
-7.31733e-06
0.000246989
-7.92469e-06
0.000250678
-8.3968e-06
0.000254491
-8.72875e-06
0.000258432
-8.91614e-06
0.000262503
-8.95691e-06
0.000266725
-8.84367e-06
0.000271077
-8.57066e-06
0.000275581
-8.13278e-06
0.000280235
-7.52679e-06
0.000285053
-6.74476e-06
0.000290033
-5.78085e-06
0.000295174
-4.63149e-06
0.000300499
-3.2876e-06
0.000305998
-1.74354e-06
0.000311685
6.23238e-09
0.000317567
1.7562e-06
0.000317566
3.29913e-06
0.000311685
4.64265e-06
0.000305997
5.79233e-06
0.000300496
6.7549e-06
0.000295175
7.53615e-06
0.000290028
8.14239e-06
0.00028505
8.57881e-06
0.000280236
8.8511e-06
0.000275579
8.9646e-06
0.000271075
8.92393e-06
0.00026672
8.73449e-06
0.000262507
8.40097e-06
0.000258431
7.92805e-06
0.000254488
7.31986e-06
0.000250676
6.58138e-06
0.000246987
5.71616e-06
0.000243422
4.72841e-06
0.00023997
3.64301e-06
0.00023658
2.79641e-06
0.000231928
2.59954e-06
0.000221167
2.2668e-06
0.000205913
1.68615e-06
0.000190084
9.15157e-07
0.000171126
0.00013199
-8.90459e-07
0.000132881
-1.6581e-06
0.000171895
-2.2602e-06
0.000190688
-2.64144e-06
0.000206297
-2.82789e-06
0.000221356
-3.56716e-06
0.000232668
-4.60768e-06
0.000237621
-5.56402e-06
0.000240927
-6.40226e-06
0.000244262
-7.11747e-06
0.000247704
-7.70608e-06
0.000251267
-8.1635e-06
0.000254948
-8.48672e-06
0.000258756
-8.67034e-06
0.000262687
-8.70801e-06
0.000266763
-8.59598e-06
0.000270965
-8.3307e-06
0.000275316
-7.90662e-06
0.000279811
-7.31738e-06
0.000284463
-6.55853e-06
0.000289274
-5.62463e-06
0.00029424
-4.50796e-06
0.000299382
-3.20452e-06
0.000304695
-1.70753e-06
0.000310188
-9.39356e-09
0.000315869
1.68859e-06
0.000315868
3.18665e-06
0.000310187
4.49038e-06
0.000304693
5.60701e-06
0.000299379
6.5421e-06
0.00029424
7.30179e-06
0.000289269
7.89127e-06
0.000284461
8.31653e-06
0.000279811
8.58235e-06
0.000275313
8.69441e-06
0.000270963
8.65687e-06
0.000266758
8.47518e-06
0.000262688
8.15377e-06
0.000258752
7.69722e-06
0.000254945
7.1096e-06
0.000251264
6.39488e-06
0.000247701
5.55734e-06
0.00024426
4.60163e-06
0.000240925
3.562e-06
0.000237619
2.82473e-06
0.000232666
2.63909e-06
0.000221353
2.25812e-06
0.000206294
1.65635e-06
0.000190686
8.89206e-07
0.000171893
0.000132879
-8.63081e-07
0.000133744
-1.62621e-06
0.000172659
-2.24578e-06
0.000191308
-2.6627e-06
0.000206714
-2.85423e-06
0.000221547
-3.49173e-06
0.000233306
-4.48596e-06
0.000238615
-5.41093e-06
0.000241852
-6.2212e-06
0.000245072
-6.91257e-06
0.000248395
-7.48094e-06
0.000251835
-7.92233e-06
0.000255389
-8.23197e-06
0.000259065
-8.4055e-06
0.00026286
-8.44123e-06
0.000266799
-8.33232e-06
0.000270856
-8.07326e-06
0.000275057
-7.65917e-06
0.000279397
-7.08724e-06
0.000283891
-6.34957e-06
0.000288536
-5.44114e-06
0.000293332
-4.35834e-06
0.000298299
-3.09276e-06
0.000303429
-1.63901e-06
0.000308735
8.06297e-09
0.000314222
1.65536e-06
0.000314221
3.10802e-06
0.000308734
4.37328e-06
0.000303428
5.4563e-06
0.000298296
6.36348e-06
0.000293333
7.10023e-06
0.000288532
7.67247e-06
0.000283889
8.08512e-06
0.000279398
8.34344e-06
0.000275055
8.45255e-06
0.000270854
8.41676e-06
0.000266793
8.24109e-06
0.000262864
7.93001e-06
0.000259063
7.48788e-06
0.000255387
6.91864e-06
0.000251833
6.2269e-06
0.000248393
5.41606e-06
0.000245071
4.49054e-06
0.000241851
3.49541e-06
0.000238614
2.85634e-06
0.000233305
2.66422e-06
0.000221545
2.24717e-06
0.000206711
1.62747e-06
0.000191306
8.6411e-07
0.000172657
0.000133743
-8.38851e-07
0.000134583
-1.59615e-06
0.000173416
-2.22594e-06
0.000191938
-2.65876e-06
0.000207146
-2.86792e-06
0.000221756
-3.42903e-06
0.000233867
-4.37588e-06
0.000239562
-5.27169e-06
0.000242748
-6.05723e-06
0.000245858
-6.72715e-06
0.000249065
-7.27812e-06
0.000252386
-7.70577e-06
0.000255817
-8.0072e-06
0.000259367
-8.17764e-06
0.000263031
-8.21085e-06
0.000266832
-8.10335e-06
0.000270748
-7.85179e-06
0.000274805
-7.45104e-06
0.000278996
-6.89505e-06
0.000283335
-6.17959e-06
0.000287821
-5.29968e-06
0.000292452
-4.24797e-06
0.000297248
-3.02068e-06
0.000302202
-1.61152e-06
0.000307325
-1.32919e-08
0.000312624
1.58477e-06
0.000312623
2.99501e-06
0.000307324
4.22262e-06
0.000302201
5.27445e-06
0.000297245
6.15565e-06
0.000292451
6.87206e-06
0.000287816
7.4285e-06
0.000283332
7.83065e-06
0.000278996
8.08297e-06
0.000274803
8.19083e-06
0.000270746
8.15813e-06
0.000266826
7.99003e-06
0.000263032
7.69048e-06
0.000259363
7.264e-06
0.000255813
6.71441e-06
0.000252382
6.04536e-06
0.000249062
5.26094e-06
0.000245855
4.36623e-06
0.000242746
3.42093e-06
0.00023956
2.86198e-06
0.000233864
2.65403e-06
0.000221753
2.22214e-06
0.000207143
1.59324e-06
0.000191935
8.36989e-07
0.000173413
0.00013458
-8.11854e-07
0.000135395
-1.56061e-06
0.000174165
-2.19445e-06
0.000192572
-2.6382e-06
0.00020759
-2.86496e-06
0.000221983
-3.35714e-06
0.000234359
-4.25458e-06
0.000240459
-5.12027e-06
0.000243614
-5.87926e-06
0.000246617
-6.52666e-06
0.000249712
-7.05842e-06
0.000252918
-7.47102e-06