/*--------------------------------*- C++ -*----------------------------------*\
| =========                 |                                                 |
| \\      /  F ield         | OpenFOAM: The Open Source CFD Toolbox           |
|  \\    /   O peration     | Version:  2.1.0                                 |
|   \\  /    A nd           | Web:      www.OpenFOAM.org                      |
|    \\/     M anipulation  |                                                 |
\*---------------------------------------------------------------------------*/
FoamFile
{
    version     2.0;
    format      ascii;
    class       volVectorField;
    location    "10000";
    object      U;
}
// * * * * * * * * * * * * * * * * * * * * * * * * * * * * * * * * * * * * * //

dimensions      [0 1 -1 0 0 0 0];

internalField   nonuniform List<vector> 
15000
(
(-27.3266 0.178758 -1.0815e-21)
(-29.9 0.244946 9.53658e-22)
(-30.1549 0.0694152 -8.57281e-23)
(-30.1553 0.177587 -1.23759e-24)
(-30.1796 0.140109 -6.87952e-25)
(-30.1682 0.140133 9.65286e-22)
(-30.166 0.13016 9.3592e-22)
(-30.1603 0.123657 -1.64334e-21)
(-30.1557 0.116259 -5.07195e-22)
(-30.151 0.109245 7.71989e-22)
(-30.1468 0.102218 -1.52525e-21)
(-30.1432 0.0953089 4.46306e-22)
(-30.1394 0.088366 1.55548e-21)
(-30.1365 0.0813492 -4.2905e-22)
(-30.1334 0.0742165 -4.01925e-22)
(-30.1314 0.0674968 1.57454e-22)
(-30.1289 0.0606238 2.03736e-23)
(-30.1277 0.0540354 -1.30677e-22)
(-30.1256 0.0469594 -8.33198e-24)
(-30.1248 0.0405738 -1.23039e-24)
(-30.1234 0.0333788 1.17929e-22)
(-30.1229 0.0267954 9.62496e-23)
(-30.1215 0.0193601 -8.22783e-25)
(-30.1214 0.012938 -8.74203e-23)
(-30.1214 0.00489673 2.04262e-23)
(-30.1213 -0.00219658 4.03093e-24)
(-30.1216 -0.0103304 8.51364e-23)
(-30.1216 -0.017243 -5.54012e-23)
(-30.1223 -0.0248598 -3.50974e-24)
(-30.1228 -0.0315491 1.2813e-22)
(-30.1242 -0.0388974 -1.7073e-22)
(-30.125 -0.0456521 -1.63564e-22)
(-30.1268 -0.0528144 3.41861e-22)
(-30.1283 -0.0596347 -4.46048e-22)
(-30.1305 -0.0666984 -1.22628e-22)
(-30.1326 -0.0736152 -7.08863e-23)
(-30.1354 -0.0806764 4.61642e-23)
(-30.1382 -0.0877049 1.18667e-21)
(-30.1417 -0.0948349 1.14013e-21)
(-30.1453 -0.101998 -1.6369e-21)
(-30.1497 -0.109253 -1.97351e-21)
(-30.1547 -0.116446 1.13103e-21)
(-30.1601 -0.123949 -1.07358e-22)
(-30.1665 -0.130471 6.45994e-23)
(-30.1693 -0.140318 9.81763e-22)
(-30.1791 -0.140346 0)
(-30.1556 -0.177706 -1.22712e-24)
(-30.1542 -0.0695505 4.44691e-22)
(-29.8996 -0.24496 -5.93299e-21)
(-27.3266 -0.178766 6.37035e-21)
(-25.3305 0.0608051 2.72479e-24)
(-29.731 0.264808 8.09314e-25)
(-30.2669 -0.0382066 6.88782e-22)
(-30.3063 0.156426 -4.16241e-23)
(-30.2938 0.0798807 -2.97127e-22)
(-30.2909 0.0992387 -9.9064e-23)
(-30.2817 0.0895545 -1.64302e-24)
(-30.2714 0.0878686 7.53689e-23)
(-30.2638 0.0836576 -6.06053e-23)
(-30.2579 0.0799224 -1.52684e-23)
(-30.2522 0.0759606 5.71197e-23)
(-30.2475 0.0715362 2.67129e-24)
(-30.2463 0.0675276 6.39349e-23)
(-30.2469 0.062806 -5.35827e-23)
(-30.2411 0.0588496 3.5545e-23)
(-30.231 0.0534618 2.23012e-23)
(-30.2258 0.0490749 -5.66067e-23)
(-30.2245 0.0430891 2.24122e-23)
(-30.2207 0.0386515 1.005e-23)
(-30.2155 0.031992 -1.58741e-23)
(-30.2158 0.0273656 -1.47514e-23)
(-30.2148 0.0202114 -1.5392e-24)
(-30.2088 0.0154387 -1.5658e-24)
(-30.2099 0.0074328 -3.1908e-24)
(-30.2159 0.00262554 5.54946e-24)
(-30.2169 -0.00542447 -2.80172e-25)
(-30.2192 -0.0101024 1.88602e-24)
(-30.2186 -0.0176438 2.53646e-24)
(-30.2194 -0.0222652 -7.23286e-25)
(-30.222 -0.0292258 -9.04336e-25)
(-30.2257 -0.0337518 4.18297e-24)
(-30.2285 -0.0399746 -1.96563e-23)
(-30.2321 -0.0444216 5.87378e-24)
(-30.2354 -0.0500117 -3.15024e-23)
(-30.2396 -0.0543609 4.1104e-24)
(-30.2437 -0.0593855 8.26106e-23)
(-30.2482 -0.0635733 -2.2677e-24)
(-30.2531 -0.0681021 1.04819e-22)
(-30.2583 -0.072076 -1.03198e-23)
(-30.2637 -0.0761298 -2.33542e-22)
(-30.2678 -0.0799002 9.28358e-24)
(-30.2712 -0.0834784 2.72608e-22)
(-30.2755 -0.0874458 1.56116e-22)
(-30.2816 -0.0893232 -2.02891e-22)
(-30.2888 -0.0987904 -1.68281e-22)
(-30.292 -0.0797983 -3.13262e-22)
(-30.3048 -0.155986 -6.73628e-23)
(-30.2662 0.0380061 6.43353e-22)
(-29.7297 -0.264433 -3.54023e-21)
(-25.3309 -0.0609163 1.27504e-23)
(-23.5881 -0.0580886 -3.27807e-21)
(-29.2022 0.322073 2.70393e-23)
(-30.2587 -0.0906672 -2.96678e-22)
(-30.3783 0.187111 7.92742e-23)
(-30.3766 0.0574532 3.18952e-22)
(-30.3731 0.104716 -4.89704e-23)
(-30.3685 0.0837856 -2.97941e-23)
(-30.3673 0.0851643 -6.32014e-25)
(-30.3636 0.0803046 -1.93719e-23)
(-30.3589 0.0767693 -1.07203e-23)
(-30.3544 0.0725624 1.63744e-23)
(-30.3496 0.0688149 6.93002e-24)
(-30.3419 0.0641936 7.154e-25)
(-30.3323 0.0603068 3.28572e-24)
(-30.3294 0.055349 4.42907e-24)
(-30.3318 0.0513563 2.20654e-23)
(-30.3303 0.0458968 -2.6663e-24)
(-30.3249 0.0418664 -1.62082e-23)
(-30.3227 0.0358862 3.5303e-24)
(-30.3229 0.0318029 1.70431e-24)
(-30.3181 0.0252566 -3.78506e-25)
(-30.315 0.0211254 -2.99874e-24)
(-30.3182 0.0140309 -1.85967e-25)
(-30.3151 0.0097613 1.88012e-25)
(-30.3078 0.00212441 3.26957e-25)
(-30.3067 -0.0022511 -6.88747e-25)
(-30.3054 -0.00987474 4.16445e-25)
(-30.3081 -0.0141595 -2.18176e-25)
(-30.3101 -0.0211718 -2.36487e-24)
(-30.3112 -0.0254409 2.79412e-24)
(-30.312 -0.0317985 -2.86539e-24)
(-30.3144 -0.0360757 8.98235e-24)
(-30.3167 -0.0418267 1.53819e-23)
(-30.3199 -0.0460961 -1.18274e-23)
(-30.3228 -0.051306 3.75348e-24)
(-30.3264 -0.0555216 -1.05672e-23)
(-30.33 -0.0602739 -1.01e-23)
(-30.3338 -0.0643719 7.81343e-25)
(-30.3378 -0.0687593 -3.43546e-24)
(-30.3423 -0.0726808 -9.4675e-24)
(-30.3484 -0.076777 1.10871e-23)
(-30.3557 -0.0803294 -1.23575e-23)
(-30.3626 -0.0853137 -7.87224e-24)
(-30.3679 -0.0836473 4.86232e-23)
(-30.3742 -0.105049 1.47784e-23)
(-30.3779 -0.0572419 1.22537e-22)
(-30.3788 -0.187312 -1.45828e-22)
(-30.2583 0.0907818 -3.44888e-22)
(-29.2023 -0.322254 0)
(-23.5897 0.0580984 1.62612e-24)
(-22.2227 -0.121576 -2.55881e-21)
(-28.5909 0.322977 1.97811e-21)
(-30.173 -0.106384 -5.19064e-25)
(-30.4202 0.206406 6.23997e-23)
(-30.4252 0.0342143 -2.86059e-22)
(-30.4251 0.113995 -1.54747e-23)
(-30.4172 0.0744156 1.51806e-22)
(-30.409 0.0845721 4.09859e-26)
(-30.4027 0.0766889 1.18156e-23)
(-30.398 0.0738948 -1.21698e-25)
(-30.3935 0.0701066 -1.77442e-23)
(-30.3896 0.0658871 5.63194e-25)
(-30.3889 0.0622119 -1.64668e-23)
(-30.3904 0.0576448 -1.68946e-24)
(-30.386 0.0538714 1.70147e-23)
(-30.3768 0.048835 -9.46101e-25)
(-30.372 0.0450029 4.0249e-24)
(-30.3712 0.0394981 4.16988e-25)
(-30.3681 0.0356011 6.95228e-25)
(-30.3632 0.0295913 8.753e-25)
(-30.3638 0.0256382 7.50308e-25)
(-30.3633 0.0190289 1.55099e-24)
(-30.3576 0.0150694 -3.19659e-24)
(-30.3587 0.00784044 -5.81671e-25)
(-30.3648 0.00374406 3.12456e-24)
(-30.3658 -0.00382714 1.01271e-24)
(-30.368 -0.00799997 -1.92929e-24)
(-30.3674 -0.0150984 1.51655e-24)
(-30.3681 -0.0192028 4.71526e-24)
(-30.3705 -0.0256717 3.94201e-24)
(-30.3739 -0.0297686 1.2918e-24)
(-30.3762 -0.0356107 -3.44028e-24)
(-30.3794 -0.039713 -1.43347e-24)
(-30.3821 -0.0449827 3.32349e-24)
(-30.3857 -0.0490604 -1.36599e-24)
(-30.3891 -0.0538342 4.11193e-24)
(-30.3929 -0.0578467 5.15618e-24)
(-30.397 -0.0622043 -1.84627e-23)
(-30.4012 -0.0660932 -7.12371e-24)
(-30.4055 -0.0701247 -8.17065e-25)
(-30.4084 -0.0740032 2.99935e-24)
(-30.4106 -0.0767242 1.24618e-23)
(-30.4139 -0.0845243 2.81896e-25)
(-30.4182 -0.0745318 5.18742e-24)
(-30.4243 -0.113777 -1.43981e-22)
(-30.4246 -0.0345325 -1.06307e-23)
(-30.42 -0.20612 1.64005e-22)
(-30.1726 0.106138 -6.31984e-24)
(-28.5902 -0.322803 1.66683e-22)
(-22.2236 0.121553 -9.63128e-22)
(-21.2246 -0.137569 -3.38667e-24)
(-27.9433 0.289422 0)
(-30.0153 -0.0986575 -1.88273e-22)
(-30.4674 0.2075 -1.20405e-22)
(-30.4932 0.0183669 1.60337e-22)
(-30.4905 0.121134 5.68319e-23)
(-30.4849 0.0633595 -4.55807e-23)
(-30.4843 0.0848406 1.26733e-24)
(-30.4807 0.07135 -1.02723e-24)
(-30.4761 0.0713546 8.22087e-24)
(-30.4714 0.0664973 -1.85276e-23)
(-30.4662 0.063241 -9.22185e-24)
(-30.4589 0.0589216 2.69406e-23)
(-30.4494 0.0553623 1.54574e-23)
(-30.4459 0.0507264 4.65146e-24)
(-30.4481 0.0471181 -6.17701e-24)
(-30.4469 0.0420242 -1.17024e-23)
(-30.4416 0.0384249 -1.22347e-23)
(-30.4392 0.0328047 -8.50707e-24)
(-30.4395 0.0292074 7.1227e-24)
(-30.4349 0.0230712 5.29401e-24)
(-30.4317 0.019415 1.02828e-24)
(-30.4347 0.0127787 2.10229e-24)
(-30.4318 0.00904589 -1.67477e-24)
(-30.4248 0.00189817 1.01017e-24)
(-30.4237 -0.00194918 1.54844e-24)
(-30.4224 -0.00906706 1.07859e-24)
(-30.425 -0.0128584 2.5941e-24)
(-30.4269 -0.0193956 -3.50373e-24)
(-30.4279 -0.0231971 5.54596e-24)
(-30.4287 -0.0291146 -1.88159e-25)
(-30.4311 -0.0329667 -7.31777e-25)
(-30.4333 -0.0382986 6.33683e-24)
(-30.4365 -0.0421771 -7.87887e-24)
(-30.4393 -0.0469999 -4.06245e-24)
(-30.4429 -0.0508533 -7.15859e-25)
(-30.4465 -0.055246 1.62915e-25)
(-30.4503 -0.0590447 -6.29169e-25)
(-30.4544 -0.0630767 6.29128e-25)
(-30.4589 -0.0665966 2.01792e-23)
(-30.4651 -0.0712735 -3.10208e-24)
(-30.4722 -0.0714046 -6.99712e-23)
(-30.4794 -0.0849217 -5.44117e-24)
(-30.484 -0.0633298 7.64035e-23)
(-30.491 -0.121319 2.82482e-23)
(-30.4938 -0.0182089 -1.18692e-24)
(-30.4671 -0.2077 -3.88836e-23)
(-30.0148 0.0986935 -5.96496e-24)
(-27.9429 -0.289441 -2.42212e-21)
(-21.2254 0.137557 2.49515e-21)
(-20.5043 -0.128727 4.83855e-22)
(-27.3261 0.243453 -7.34995e-22)
(-29.7767 -0.0819299 -4.19739e-24)
(-30.4887 0.196607 -2.27621e-24)
(-30.5467 0.00970943 4.41814e-25)
(-30.548 0.124501 -3.44062e-23)
(-30.54 0.0525689 -3.36249e-23)
(-30.5322 0.0853798 1.01884e-24)
(-30.525 0.0651693 2.24238e-23)
(-30.5203 0.0687016 1.46766e-24)
(-30.5157 0.0628375 1.76839e-24)
(-30.5122 0.0596797 -1.52885e-23)
(-30.511 0.0562419 0)
(-30.5124 0.0519528 -1.55994e-25)
(-30.5087 0.0486475 1.49582e-23)
(-30.4998 0.043943 2.55732e-24)
(-30.4947 0.0405708 -1.101e-23)
(-30.4938 0.035481 2.63001e-24)
(-30.4909 0.0320527 7.60684e-25)
(-30.4861 0.0265137 -1.6159e-24)
(-30.4864 0.0231019 -2.37343e-24)
(-30.4862 0.0169672 -3.61512e-24)
(-30.4806 0.0136309 1.36028e-25)
(-30.4815 0.00693097 -1.47585e-24)
(-30.4873 0.00349594 -2.76825e-24)
(-30.4883 -0.00348445 -1.43639e-24)
(-30.4904 -0.00701291 -1.65508e-24)
(-30.4898 -0.0135465 1.47648e-25)
(-30.4906 -0.0170811 1.12209e-23)
(-30.4929 -0.023023 -1.00285e-24)
(-30.4961 -0.026615 -1.43517e-23)
(-30.4985 -0.0319702 9.27101e-24)
(-30.5015 -0.0356234 1.87809e-24)
(-30.5043 -0.0404436 -1.39259e-23)
(-30.5078 -0.0441186 -5.17229e-24)
(-30.5112 -0.048496 7.2106e-24)
(-30.515 -0.0521183 4.98432e-24)
(-30.519 -0.0561213 -1.26705e-23)
(-30.5232 -0.0598471 1.29361e-24)
(-30.5274 -0.0627406 1.16519e-23)
(-30.5305 -0.0688335 -4.89542e-25)
(-30.5328 -0.0651076 -1.85114e-23)
(-30.5366 -0.0854349 -1.86861e-24)
(-30.5406 -0.0525896 -1.70023e-24)
(-30.5471 -0.124395 7.98812e-24)
(-30.5461 -0.00990391 -5.03723e-23)
(-30.4884 -0.196418 -1.6815e-24)
(-29.7759 0.0818168 2.49641e-22)
(-27.3254 -0.243429 -1.91316e-23)
(-20.5046 0.128722 -1.79447e-22)
(-20.0057 -0.110036 2.60717e-22)
(-26.7604 0.196845 -2.4951e-22)
(-29.4712 -0.0625927 -1.53278e-22)
(-30.4829 0.17942 5.94531e-24)
(-30.5996 0.00847418 3.31578e-23)
(-30.5993 0.123673 -8.35059e-24)
(-30.5938 0.0444673 -4.56404e-23)
(-30.5932 0.0859625 -2.47557e-24)
(-30.5893 0.058979 1.18662e-24)
(-30.5852 0.0674098 0)
(-30.5803 0.0586538 2.4094e-24)
(-30.5754 0.057621 -3.60613e-25)
(-30.5686 0.0529228 1.11172e-23)
(-30.5591 0.0499649 9.19342e-24)
(-30.5552 0.0456639 -8.84046e-24)
(-30.5571 0.0424594 -6.07362e-24)
(-30.5562 0.037769 -1.20091e-23)
(-30.5512 0.0346193 1.95212e-24)
(-30.5485 0.0294262 1.11234e-23)
(-30.5491 0.026327 -3.37997e-24)
(-30.5447 0.0206339 -8.21545e-25)
(-30.5414 0.0175238 5.49625e-24)
(-30.5444 0.0113758 1.99236e-24)
(-30.5417 0.00821388 -7.06943e-25)
(-30.5349 0.00161312 -2.84821e-24)
(-30.5339 -0.00164772 -3.75988e-25)
(-30.5327 -0.00820607 -1.85105e-24)
(-30.5352 -0.0114539 3.56882e-24)
(-30.537 -0.01747 -4.43894e-24)
(-30.5379 -0.0207708 -4.45557e-24)
(-30.5387 -0.0262059 -2.41065e-24)
(-30.5411 -0.0295988 -5.9904e-24)
(-30.5433 -0.0344783 -2.24751e-24)
(-30.5464 -0.0379447 8.37898e-24)
(-30.5492 -0.0423308 8.5061e-24)
(-30.5527 -0.0458213 4.60448e-26)
(-30.5563 -0.0498398 -1.00386e-23)
(-30.56 -0.053097 1.31548e-23)
(-30.5641 -0.0574614 4.94491e-24)
(-30.5685 -0.0587962 -3.4177e-24)
(-30.5749 -0.067316 -3.24412e-24)
(-30.5816 -0.0590639 -2.63522e-23)
(-30.5888 -0.085946 1.24906e-24)
(-30.5932 -0.0445039 -4.68545e-23)
(-30.5999 -0.123718 -1.07905e-24)
(-30.6001 -0.00850005 3.36875e-23)
(-30.4824 -0.179456 8.7997e-25)
(-29.4709 0.0626134 -3.07791e-25)
(-26.7604 -0.196869 -2.72665e-25)
(-20.0058 0.110037 -6.29478e-25)
(-19.6644 -0.0897225 1.12802e-24)
(-26.273 0.155839 5.06663e-25)
(-29.1198 -0.0442976 1.76638e-22)
(-30.4411 0.160352 8.55381e-24)
(-30.6414 0.0114557 -9.92793e-24)
(-30.648 0.120445 2.74483e-24)
(-30.6409 0.0391625 4.86992e-23)
(-30.6332 0.0860962 1.40404e-24)
(-30.6259 0.0539454 -5.19507e-23)
(-30.6215 0.066243 -3.76027e-25)
(-30.6168 0.0555494 3.76309e-24)
(-30.6132 0.0553257 8.15096e-24)
(-30.6115 0.0509883 -2.09062e-24)
(-30.6129 0.0474171 1.44647e-24)
(-30.6099 0.0443559 1.47944e-24)
(-30.6013 0.0399461 -9.88079e-25)
(-30.5961 0.0369794 2.68102e-25)
(-30.5951 0.0321974 -6.43965e-24)
(-30.5926 0.0291947 -2.84855e-25)
(-30.5878 0.0240052 2.95087e-24)
(-30.5879 0.0210545 -6.06074e-24)
(-30.5879 0.0152932 -5.08407e-24)
(-30.5824 0.0124669 4.60367e-24)
(-30.5832 0.00617568 2.01e-24)
(-30.5888 0.00327892 3.88992e-25)
(-30.5897 -0.00324083 -5.79969e-25)
(-30.5918 -0.00625638 -3.27605e-25)
(-30.5911 -0.0123358 -2.20777e-24)
(-30.5919 -0.0154144 9.13472e-25)
(-30.5942 -0.0209295 7.53762e-24)
(-30.5973 -0.0241104 1.08158e-25)
(-30.5995 -0.0290662 -3.671e-25)
(-30.6025 -0.032347 1.21659e-25)
(-30.6051 -0.0367995 6.28411e-24)
(-30.6086 -0.0401397 2.29804e-24)
(-30.6118 -0.0441333 -7.83027e-24)
(-30.6155 -0.0476287 4.21158e-24)
(-30.6194 -0.0507782 -2.88198e-25)
(-30.6236 -0.0555293 -3.26016e-24)
(-30.6277 -0.0553935 -5.86902e-25)
(-30.631 -0.0663713 -1.0049e-24)
(-30.633 -0.0538465 3.32436e-23)
(-30.637 -0.0861453 -3.51472e-24)
(-30.6412 -0.0391358 -6.07597e-23)
(-30.6471 -0.120382 9.37781e-25)
(-30.6408 -0.0115026 1.38081e-23)
(-30.4403 -0.160268 5.15701e-24)
(-29.119 0.044254 -6.23726e-23)
(-26.2725 -0.155835 9.69301e-24)
(-19.6642 0.0897232 2.68678e-22)
(-19.4262 -0.0716793 -4.22888e-22)
(-25.8586 0.122829 7.84708e-22)
(-28.7547 -0.0292012 7.45897e-24)
(-30.3599 0.140842 1.40419e-23)
(-30.6823 0.0180165 -6.02087e-25)
(-30.6924 0.114758 -9.83136e-24)
(-30.6877 0.0366858 2.55762e-23)
(-30.6867 0.085654 -1.05385e-23)
(-30.6829 0.0497078 -1.26224e-23)
(-30.6789 0.0660867 2.28986e-24)
(-30.6741 0.0520721 -1.24366e-23)
(-30.6694 0.0546695 -3.13573e-24)
(-30.663 0.0482624 5.63479e-24)
(-30.6538 0.0465132 1.47596e-24)
(-30.6496 0.0420529 2.9531e-24)
(-30.6512 0.0392487 3.34341e-24)
(-30.6506 0.0347997 -3.79011e-25)
(-30.6458 0.0319514 8.95733e-25)
(-30.643 0.0270527 2.51705e-24)
(-30.6437 0.0243003 -2.03253e-24)
(-30.6395 0.0189013 1.47234e-25)
(-30.6361 0.0161917 1.11486e-24)
(-30.6391 0.0103691 -1.68243e-24)
(-30.6367 0.00762392 9.10888e-25)
(-30.6301 0.00140477 1.10841e-24)
(-30.6292 -0.00143115 1.85765e-24)
(-30.628 -0.00759569 -1.44634e-24)
(-30.6305 -0.0104525 6.64665e-26)
(-30.6321 -0.0161032 3.8118e-24)
(-30.633 -0.0190526 -5.4795e-24)
(-30.6338 -0.0241473 2.25996e-24)
(-30.6362 -0.0272296 3.58286e-24)
(-30.6383 -0.0317884 -8.7186e-25)
(-30.6413 -0.0349769 -1.73011e-24)
(-30.644 -0.0391024 -2.13768e-24)
(-30.6475 -0.0422087 2.98449e-24)
(-30.6509 -0.0463572 5.02054e-25)
(-30.6546 -0.0484638 2.53582e-24)
(-30.6587 -0.0544568 -8.93091e-25)
(-30.6631 -0.0522603 -1.06447e-23)
(-30.6694 -0.0659359 -9.46309e-25)
(-30.6759 -0.0498245 -2.78567e-23)
(-30.6828 -0.0855792 -5.51518e-24)
(-30.6873 -0.03677 2.51036e-23)
(-30.693 -0.114735 -8.91295e-24)
(-30.6825 -0.0180404 3.29418e-26)
(-30.3599 -0.140861 8.53548e-24)
(-28.7547 0.0291848 8.66068e-25)
(-25.8588 -0.122831 3.2324e-22)
(-19.426 0.0716769 8.41195e-23)
(-19.2568 -0.0569352 5.57696e-23)
(-25.5164 0.0972399 -1.493e-22)
(-28.4 -0.0178867 1.06348e-22)
(-30.2347 0.123025 -8.7082e-25)
(-30.7084 0.0251168 -2.99357e-25)
(-30.7352 0.108357 1.10368e-23)
(-30.7296 0.0361532 -4.19146e-24)
(-30.7215 0.0842623 1.68599e-24)
(-30.7145 0.0469947 6.54823e-24)
(-30.7101 0.0652852 0)
(-30.7055 0.0499487 3.01014e-25)
(-30.7018 0.053268 8.35336e-25)
(-30.6997 0.0469878 -1.17645e-24)
(-30.7008 0.0447843 -3.14839e-24)
(-30.6986 0.041333 -4.13443e-24)
(-30.6903 0.0373757 -4.76255e-24)
(-30.685 0.0345757 3.38794e-24)
(-30.6839 0.029993 4.76165e-24)
(-30.6817 0.0273031 -4.31322e-24)
(-30.6769 0.0223034 -2.9255e-25)
(-30.6769 0.0196826 -9.85246e-25)
(-30.6772 0.0141601 1.56967e-24)
(-30.6717 0.0116812 2.20961e-24)
(-30.6723 0.00565463 1.17879e-24)
(-30.6778 0.00313435 1.14818e-24)
(-30.6786 -0.00308574 -2.60026e-25)
(-30.6806 -0.00574607 -3.8058e-25)
(-30.6799 -0.0115249 3.37387e-24)
(-30.6807 -0.0142968 -1.42491e-24)
(-30.683 -0.0195274 -1.4054e-24)
(-30.6859 -0.0224368 1.9697e-24)
(-30.688 -0.0271289 3.37817e-25)
(-30.6909 -0.0301781 1.29885e-25)
(-30.6934 -0.0343503 1.36172e-24)
(-30.6968 -0.0376017 -2.61219e-25)
(-30.7 -0.0410603 -2.0979e-24)
(-30.7036 -0.0450522 2.95161e-25)
(-30.7074 -0.046704 -8.32308e-24)
(-30.7117 -0.0535161 -3.42103e-25)
(-30.7156 -0.0497653 -4.50721e-24)
(-30.7189 -0.0654029 1.03694e-24)
(-30.7209 -0.0468997 2.71184e-23)
(-30.7249 -0.084317 6.60504e-25)
(-30.7297 -0.036063 -4.44496e-24)
(-30.7343 -0.108406 -2.49418e-25)
(-30.708 -0.02505 1.85335e-24)
(-30.2338 -0.123013 -8.81187e-24)
(-28.3991 0.0179077 -6.03518e-23)
(-25.5157 -0.0972412 -3.95253e-22)
(-19.2564 0.0569366 2.58755e-22)
(-19.1321 -0.0453561 -7.77637e-22)
(-25.2332 0.0778248 1.16275e-21)
(-28.0732 -0.00974215 9.42474e-23)
(-30.0704 0.106572 1.67375e-23)
(-30.7296 0.0327002 7.8305e-24)
(-30.7742 0.100893 -4.44658e-25)
(-30.771 0.0370601 6.25515e-24)
(-30.7694 0.0823964 -8.45328e-25)
(-30.7659 0.0446835 2.9009e-26)
(-30.7618 0.0651047 8.3717e-25)
(-30.757 0.047245 -1.50922e-25)
(-30.7527 0.0531917 -4.65872e-25)
(-30.7466 0.0446353 1.74808e-24)
(-30.7377 0.0445042 4.50597e-25)
(-30.733 0.0393673 2.40345e-25)
(-30.7344 0.0371694 -2.96185e-24)
(-30.734 0.0326951 1.87343e-24)
(-30.7294 0.0301418 3.12728e-24)
(-30.7264 0.0253951 -4.97592e-25)
(-30.7274 0.0229085 -3.07067e-24)
(-30.7233 0.0176827 5.57003e-27)
(-30.7199 0.0152775 -1.17276e-24)
(-30.7229 0.00965222 -6.8389e-26)
(-30.7206 0.00721813 -3.23756e-25)
(-30.7143 0.0012494 -7.2338e-26)
(-30.7134 -0.0012804 2.06783e-25)
(-30.7123 -0.00717669 3.21485e-24)
(-30.7147 -0.00975962 1.67796e-24)
(-30.7162 -0.0151579 -2.41905e-24)
(-30.7171 -0.0178693 5.31285e-25)
(-30.7179 -0.0227278 0)
(-30.7202 -0.0255972 -4.64354e-25)
(-30.7223 -0.0299659 -8.81732e-25)
(-30.7253 -0.0328859 1.42699e-24)
(-30.7279 -0.0370333 -7.75564e-25)
(-30.7313 -0.0395146 2.34435e-24)
(-30.7348 -0.0443525 -7.60496e-25)
(-30.7384 -0.0448684 -1.10314e-23)
(-30.7426 -0.0529608 6.95904e-25)
(-30.7467 -0.0474466 2.15847e-24)
(-30.753 -0.064983 -3.69815e-25)
(-30.7594 -0.0447946 6.94886e-24)
(-30.766 -0.0823474 -1.81582e-24)
(-30.7709 -0.0371827 -1.94411e-24)
(-30.7747 -0.100747 -6.20278e-25)
(-30.7294 -0.0328848 0)
(-30.0705 -0.106539 -9.76465e-24)
(-28.0736 0.00970458 -5.44787e-23)
(-25.2336 -0.0778263 1.27575e-22)
(-19.1319 0.0453549 -3.67809e-22)
(-19.0391 -0.0366703 -1.08628e-22)
(-25.0011 0.0631537 -2.57782e-22)
(-27.7859 -0.00406277 -5.11635e-24)
(-29.8753 0.0923007 -1.54615e-23)
(-30.7278 0.0388776 1.73819e-24)
(-30.8122 0.0941495 -2.41228e-23)
(-30.8091 0.0391293 2.14781e-25)
(-30.8006 0.0796005 6.59144e-24)
(-30.7939 0.0439195 -4.07752e-24)
(-30.7894 0.0639872 -6.9184e-25)
(-30.7849 0.0459891 1.59304e-23)
(-30.7812 0.0520898 -6.37556e-25)
(-30.7786 0.0437887 -9.20085e-24)
(-30.7794 0.0432357 1.05014e-24)
(-30.7779 0.0389303 8.79903e-25)
(-30.7699 0.0356753 5.95095e-26)
(-30.7644 0.0327757 -1.14671e-25)
(-30.7632 0.0284231 9.85445e-25)
(-30.7613 0.025935 1.21598e-24)
(-30.7566 0.0210564 -1.76297e-25)
(-30.7564 0.0186925 -6.71309e-26)
(-30.7569 0.0133255 5.06699e-25)
(-30.7515 0.0111074 4.44192e-26)
(-30.752 0.00526779 1.36602e-24)
(-30.7573 0.0030277 -8.26036e-25)
(-30.758 -0.00297977 -1.52295e-24)
(-30.7599 -0.00537428 3.30751e-25)
(-30.7592 -0.0109387 -1.01803e-24)
(-30.76 -0.0134877 -4.17332e-25)
(-30.7622 -0.0185095 7.1824e-25)
(-30.7651 -0.0212353 7.17734e-25)
(-30.7671 -0.0257093 -5.95437e-25)
(-30.7699 -0.0286656 6.06958e-25)
(-30.7724 -0.0324947 3.54418e-25)
(-30.7757 -0.0359455 -2.86012e-24)
(-30.7788 -0.038628 -8.96069e-25)
(-30.7824 -0.0435061 1.99871e-24)
(-30.7862 -0.0435073 -9.49709e-26)
(-30.7905 -0.0523285 6.09674e-25)
(-30.7943 -0.0457935 -1.76279e-24)
(-30.7974 -0.0641015 5.66641e-25)
(-30.7998 -0.0438238 3.09147e-24)
(-30.8035 -0.0796013 -1.01116e-23)
(-30.8089 -0.0391058 -3.8588e-25)
(-30.8113 -0.094131 3.3049e-23)
(-30.7275 -0.0388052 6.77479e-24)
(-29.8742 -0.0922906 -6.65037e-25)
(-27.7848 0.00407966 2.74935e-22)
(-25.0002 -0.0631444 -6.03255e-24)
(-19.0387 0.0366695 -8.30792e-23)
(-18.9679 -0.0299111 -5.48639e-22)
(-24.8096 0.0516789 4.48949e-22)
(-27.5325 -0.000529157 -7.31317e-25)
(-29.6614 0.0801801 1.22437e-23)
(-30.7128 0.0430584 -1.45798e-24)
(-30.8458 0.0879861 2.34355e-23)
(-30.8461 0.0405697 -1.24112e-24)
(-30.844 0.076805 5.44546e-24)
(-30.8407 0.0428055 6.42454e-24)
(-30.8364 0.06317 -2.30163e-24)
(-30.8318 0.0439069 -2.27798e-24)
(-30.8276 0.0519189 2.2102e-24)
(-30.8218 0.0416913 -1.51359e-24)
(-30.8132 0.0431001 3.61696e-25)
(-30.8082 0.0370597 -6.95739e-24)
(-30.8093 0.035699 -1.90168e-25)
(-30.809 0.030929 6.4059e-24)
(-30.8046 0.0287923 1.68013e-25)
(-30.8015 0.0240559 -2.78353e-24)
(-30.8026 0.0218427 0)
(-30.7987 0.0167132 -1.59365e-24)
(-30.7952 0.0145779 0)
(-30.7981 0.00908149 1.07632e-25)
(-30.796 0.00691601 1.41935e-24)
(-30.7899 0.00112633 -5.11222e-25)
(-30.7891 -0.00114949 -1.04183e-24)
(-30.788 -0.00684112 1.01825e-24)
(-30.7904 -0.00920501 -1.68959e-24)
(-30.7919 -0.0144073 6.30552e-25)
(-30.7926 -0.0169255 5.68781e-25)
(-30.7935 -0.021616 1.03414e-24)
(-30.7958 -0.0242746 0)
(-30.7978 -0.0285836 -1.33209e-24)
(-30.8008 -0.0311326 2.1302e-25)
(-30.8034 -0.0355418 1.84757e-24)
(-30.8068 -0.0372058 -5.38387e-26)
(-30.8102 -0.042948 3.71986e-25)
(-30.8139 -0.0419165 1.18222e-24)
(-30.818 -0.0516863 8.6507e-25)
(-30.8221 -0.0441205 -7.06655e-25)
(-30.8283 -0.0630351 7.75124e-25)
(-30.8348 -0.0429454 -7.45922e-24)
(-30.8409 -0.076757 -5.45419e-24)
(-30.8461 -0.0406527 1.86287e-24)
(-30.8463 -0.0880131 8.16517e-25)
(-30.7126 -0.0430983 -9.04103e-26)
(-29.6617 -0.0801834 4.3236e-25)
(-27.5331 0.000513758 7.42171e-23)
(-24.8103 -0.051679 -6.32642e-24)
(-18.9677 0.0299119 -6.75435e-23)
(-18.9149 -0.0246226 1.29546e-22)
(-24.659 0.0425974 -1.16761e-22)
(-27.3163 0.0018107 -9.62826e-23)
(-29.4385 0.0692955 -6.07902e-24)
(-30.6769 0.0464848 -2.14223e-24)
(-30.8775 0.0822205 -9.52403e-24)
(-30.8805 0.0427706 -3.0726e-24)
(-30.8719 0.0734774 3.86805e-24)
(-30.8655 0.042925 3.83682e-24)
(-30.8609 0.061443 -2.44394e-24)
(-30.8564 0.0432205 -9.56021e-24)
(-30.8527 0.0506253 1.84209e-24)
(-30.8498 0.0410448 6.07e-25)
(-30.8503 0.0418622 -8.41759e-25)
(-30.8494 0.036713 1.09099e-24)
(-30.8416 0.0342558 -4.10528e-24)
(-30.8361 0.0310981 -8.43956e-25)
(-30.8347 0.0270872 4.09052e-24)
(-30.8331 0.0246978 7.21309e-26)
(-30.8284 0.0199649 6.60904e-25)
(-30.828 0.017817 9.58851e-26)
(-30.8288 0.0125865 -9.21845e-25)
(-30.8235 0.0105996 -6.79647e-25)
(-30.8238 0.00492128 -1.81983e-24)
(-30.8289 0.00292578 2.73171e-25)
(-30.8296 -0.00289602 1.4495e-24)
(-30.8314 -0.00505969 -1.05586e-24)
(-30.8307 -0.0104345 1.2424e-24)
(-30.8316 -0.0127951 7.40635e-25)
(-30.8337 -0.0176161 1.57194e-24)
(-30.8365 -0.0202156 -1.03858e-25)
(-30.8384 -0.0244286 -2.10075e-24)
(-30.8411 -0.0274113 1.32142e-24)
(-30.8435 -0.0307693 5.0983e-25)
(-30.8469 -0.0346015 0)
(-30.8498 -0.0363709 9.23448e-25)
(-30.8535 -0.0421826 -1.27423e-24)
(-30.8573 -0.0407641 -9.03019e-25)
(-30.8614 -0.0508714 -1.87935e-26)
(-30.8653 -0.0430298 1.39144e-24)
(-30.8682 -0.0615737 -5.66012e-25)
(-30.8708 -0.0428112 -7.70703e-25)
(-30.8745 -0.0735142 1.14224e-24)
(-30.8802 -0.0427076 5.41045e-25)
(-30.8767 -0.0822031 -1.45256e-23)
(-30.676 -0.0464398 -3.72201e-25)
(-29.4374 -0.0692901 -6.49148e-24)
(-27.3151 -0.00180178 5.73911e-23)
(-24.6578 -0.0425976 -1.27584e-22)
(-18.9145 0.0246213 1.80243e-22)
(-18.8762 -0.02056 4.36037e-25)
(-24.5326 0.0356847 -6.87504e-26)
(-27.1285 0.00351258 -2.36646e-25)
(-29.2186 0.0602991 -2.6429e-24)
(-30.6164 0.048143 7.19404e-25)
(-30.9039 0.0779955 1.68891e-24)
(-30.9134 0.0443274 3.76054e-25)
(-30.9111 0.071046 -6.15088e-24)
(-30.908 0.042734 5.14745e-24)
(-30.9036 0.0606121 1.08148e-24)
(-30.8991 0.0419779 -9.33268e-24)
(-30.895 0.0505909 2.24634e-25)
(-30.8897 0.0394818 6.60351e-24)
(-30.8812 0.042056 -3.12185e-25)
(-30.876 0.0351351 -1.56164e-24)
(-30.8767 0.03466 -3.81887e-25)
(-30.8766 0.0294394 -1.18183e-24)
(-30.8725 0.0278087 -3.29307e-25)
(-30.8692 0.0229399 1.01596e-24)
(-30.8704 0.021044 -7.67064e-25)
(-30.8667 0.0159227 7.5576e-25)
(-30.8631 0.0140473 0)
(-30.866 0.00862313 -1.07137e-24)
(-30.864 0.00669506 -1.26067e-24)
(-30.8582 0.00103339 6.04354e-25)
(-30.8574 -0.00102683 -1.09971e-24)
(-30.8564 -0.00656156 -2.8681e-25)
(-30.8587 -0.00874262 1.14504e-24)
(-30.8601 -0.0137983 4.21846e-25)
(-30.8609 -0.0161417 6.71158e-25)
(-30.8617 -0.0207394 -1.97398e-24)
(-30.864 -0.0231564 1.64333e-24)
(-30.866 -0.0275385 6.38573e-25)
(-30.8689 -0.0296259 -2.10233e-24)
(-30.8715 -0.0344401 3.84342e-25)
(-30.8748 -0.0352894 -2.58622e-24)
(-30.8782 -0.0418235 -2.71437e-25)
(-30.8819 -0.0397067 5.53335e-24)
(-30.8859 -0.0503017 1.71974e-25)
(-30.89 -0.0421747 -4.93396e-24)
(-30.8961 -0.0604237 -5.28843e-25)
(-30.9026 -0.0428524 3.13417e-24)
(-30.9084 -0.0709563 2.18239e-25)
(-30.9135 -0.0443792 1.72708e-24)
(-30.9042 -0.0779764 3.71698e-24)
(-30.6167 -0.0481639 5.08032e-25)
(-29.219 -0.0603193 2.02877e-24)
(-27.1293 -0.00352222 5.66966e-25)
(-24.5334 -0.0356827 2.61007e-25)
(-18.8761 0.0205614 8.72152e-25)
(-18.8481 -0.0173634 3.83267e-23)
(-24.4282 0.0300707 3.21766e-24)
(-26.9712 0.00499137 -4.52429e-23)
(-29.0134 0.0524427 0)
(-30.532 0.0489839 1.2458e-24)
(-30.9267 0.0739622 -2.45057e-24)
(-30.945 0.0462207 8.22397e-25)
(-30.9366 0.0680208 -1.60947e-24)
(-30.9305 0.0434108 2.06821e-25)
(-30.9257 0.0587626 1.59545e-24)
(-30.9214 0.0418898 6.43775e-25)
(-30.9175 0.0492515 -1.31724e-25)
(-30.9144 0.0392697 -1.70385e-24)
(-30.9145 0.0408232 1.76308e-24)
(-30.9142 0.0351203 3.65026e-24)
(-30.9067 0.0332742 -8.02795e-25)
(-30.9011 0.029836 -1.2364e-24)
(-30.8996 0.0261577 -1.02464e-24)
(-30.8983 0.0237667 1.67651e-24)
(-30.8936 0.0191784 -8.03958e-26)
(-30.8929 0.017164 -3.70257e-25)
(-30.894 0.0120391 1.18615e-24)
(-30.8887 0.0102196 1.50903e-24)
(-30.889 0.0046562 5.91812e-25)
(-30.8939 0.00284343 1.00248e-25)
(-30.8945 -0.00284299 9.60825e-26)
(-30.8962 -0.00483912 5.34126e-25)
(-30.8956 -0.0100676 -1.79809e-24)
(-30.8964 -0.0123106 2.48307e-25)
(-30.8986 -0.0169497 -8.57356e-25)
(-30.9012 -0.0195258 -4.48348e-25)
(-30.903 -0.0234494 1.47292e-25)
(-30.9057 -0.0266001 -1.24306e-24)
(-30.9081 -0.0294491 5.70697e-25)
(-30.9114 -0.0337286 -3.77827e-26)
(-30.9143 -0.0347492 -2.2806e-24)
(-30.9179 -0.0412128 3.56811e-24)
(-30.9217 -0.0390068 2.60401e-24)
(-30.9257 -0.0495326 -3.72092e-24)
(-30.9296 -0.0417078 -2.43642e-24)
(-30.9324 -0.0589464 4.90495e-25)
(-30.9353 -0.0432977 1.16196e-24)
(-30.9389 -0.068108 9.45708e-24)
(-30.9445 -0.0461716 1.78174e-24)
(-30.9261 -0.0739822 -9.26843e-24)
(-30.5313 -0.0489502 -2.26013e-25)
(-29.0121 -0.0524259 -1.65301e-24)
(-26.9698 -0.00497744 -1.4548e-24)
(-24.4268 -0.030073 -8.71387e-23)
(-18.8477 0.0173628 -1.98152e-24)
(-18.8282 -0.0148101 -1.52048e-23)
(-24.3399 0.025577 7.18984e-23)
(-26.8307 0.00608534 1.86351e-23)
(-28.8244 0.0464634 3.61312e-24)
(-30.4296 0.0484445 -1.9798e-25)
(-30.942 0.0713902 4.61658e-24)
(-30.9744 0.0470816 4.41028e-26)
(-30.9725 0.0661766 -1.85328e-24)
(-30.9695 0.0434572 -1.72748e-24)
(-30.9649 0.0579439 -4.73919e-25)
(-30.9606 0.0410805 -2.50105e-24)
(-30.9565 0.0492286 -6.56298e-25)
(-30.9516 0.0379852 -4.36305e-24)
(-30.9434 0.0412018 2.08265e-27)
(-30.9379 0.0336497 3.25994e-24)
(-30.9384 0.0339215 7.63578e-25)
(-30.9383 0.0282323 -1.73871e-24)
(-30.9344 0.0271212 -3.91294e-25)
(-30.931 0.0220244 -1.05374e-24)
(-30.9323 0.0204753 6.91312e-25)
(-30.9288 0.0152802 3.68105e-25)
(-30.9251 0.0136599 2.01546e-25)
(-30.9279 0.00825276 7.48267e-26)
(-30.9261 0.00653564 -8.35422e-25)
(-30.9205 0.000953808 0)
(-30.9198 -0.000925417 1.00157e-24)
(-30.9188 -0.00634998 -5.52587e-25)
(-30.9211 -0.0083772 -1.5616e-26)
(-30.9224 -0.013341 3.54697e-25)
(-30.9231 -0.0155159 -2.59248e-25)
(-30.924 -0.0201013 -3.16111e-25)
(-30.9263 -0.0222517 -3.36109e-25)
(-30.9282 -0.0267943 3.48472e-25)
(-30.9311 -0.0284307 1.09731e-24)
(-30.9336 -0.0336267 -1.85792e-24)
(-30.937 -0.033858 1.63098e-24)
(-30.9404 -0.0408756 1.12589e-24)
(-30.944 -0.0382422 -9.15993e-24)
(-30.9479 -0.0488927 -8.61608e-25)
(-30.952 -0.0412932 5.08028e-24)
(-30.958 -0.057714 4.38828e-25)
(-30.9646 -0.0435888 6.0276e-26)
(-30.97 -0.0660613 7.48494e-24)
(-30.9747 -0.0471281 -1.05544e-24)
(-30.9422 -0.0713721 -4.48527e-24)
(-30.4297 -0.0484693 4.4525e-24)
(-28.8251 -0.0464698 7.2796e-27)
(-26.8318 -0.00609576 -7.23415e-23)
(-24.3408 -0.0255728 -1.53256e-22)
(-18.828 0.014812 2.11756e-22)
(-18.8147 -0.0127506 5.42518e-23)
(-24.2647 0.0220387 3.64278e-24)
(-26.7087 0.00715475 -8.8109e-23)
(-28.6559 0.0413629 2.97642e-25)
(-30.3153 0.0480955 -6.50628e-25)
(-30.9504 0.0681379 -3.05908e-25)
(-31.0034 0.0487353 -1.06309e-24)
(-30.9959 0.0638139 7.8788e-24)
(-30.9899 0.0442797 -6.31202e-25)
(-30.985 0.0562691 -4.76096e-25)
(-30.9808 0.0414233 -4.1848e-26)
(-30.9768 0.0478755 -1.31011e-25)
(-30.9736 0.0382168 -3.00586e-24)
(-30.9734 0.0399071 -2.05706e-24)
(-30.9736 0.0340075 1.20582e-24)
(-30.9662 0.032524 9.76135e-25)
(-30.9606 0.028875 2.61254e-25)
(-30.9589 0.0254763 4.65761e-25)
(-30.9579 0.0230397 -1.89892e-24)
(-30.9533 0.0185909 -8.69742e-26)